0.00000  0  0  -1 -1 cwnd_ 1.000 
0.00000  1  0  -1 -1 cwnd_ 1.000 
+ 0.1 0 2 tcp 40 ------- 1 0.0 4.0 0 0
- 0.1 0 2 tcp 40 ------- 1 0.0 4.0 0 0
+ 0.1 1 2 tcp 40 ------- 2 1.0 5.0 0 1
- 0.1 1 2 tcp 40 ------- 2 1.0 5.0 0 1
r 0.105003 0 2 tcp 40 ------- 1 0.0 4.0 0 0
+ 0.105003 2 3 tcp 40 ------- 1 0.0 4.0 0 0
- 0.105003 2 3 tcp 40 ------- 1 0.0 4.0 0 0
r 0.105003 1 2 tcp 40 ------- 2 1.0 5.0 0 1
+ 0.105003 2 3 tcp 40 ------- 2 1.0 5.0 0 1
- 0.108203 2 3 tcp 40 ------- 2 1.0 5.0 0 1
r 0.109203 2 3 tcp 40 ------- 1 0.0 4.0 0 0
+ 0.109203 3 4 tcp 40 ------- 1 0.0 4.0 0 0
- 0.109203 3 4 tcp 40 ------- 1 0.0 4.0 0 0
r 0.112403 2 3 tcp 40 ------- 2 1.0 5.0 0 1
+ 0.112403 3 5 tcp 40 ------- 2 1.0 5.0 0 1
- 0.112403 3 5 tcp 40 ------- 2 1.0 5.0 0 1
r 0.114206 3 4 tcp 40 ------- 1 0.0 4.0 0 0
+ 0.114206 4 3 ack 40 ------- 1 4.0 0.0 0 2
- 0.114206 4 3 ack 40 ------- 1 4.0 0.0 0 2
r 0.117406 3 5 tcp 40 ------- 2 1.0 5.0 0 1
+ 0.117406 5 3 ack 40 ------- 2 5.0 1.0 0 3
- 0.117406 5 3 ack 40 ------- 2 5.0 1.0 0 3
r 0.11921 4 3 ack 40 ------- 1 4.0 0.0 0 2
+ 0.11921 3 2 ack 40 ------- 1 4.0 0.0 0 2
- 0.11921 3 2 ack 40 ------- 1 4.0 0.0 0 2
r 0.12241 5 3 ack 40 ------- 2 5.0 1.0 0 3
+ 0.12241 3 2 ack 40 ------- 2 5.0 1.0 0 3
- 0.12241 3 2 ack 40 ------- 2 5.0 1.0 0 3
r 0.12341 3 2 ack 40 ------- 1 4.0 0.0 0 2
+ 0.12341 2 0 ack 40 ------- 1 4.0 0.0 0 2
- 0.12341 2 0 ack 40 ------- 1 4.0 0.0 0 2
r 0.12661 3 2 ack 40 ------- 2 5.0 1.0 0 3
+ 0.12661 2 1 ack 40 ------- 2 5.0 1.0 0 3
- 0.12661 2 1 ack 40 ------- 2 5.0 1.0 0 3
r 0.128413 2 0 ack 40 ------- 1 4.0 0.0 0 2
0.12841  0  0  4  0  cwnd_ 2.000 
+ 0.128413 0 2 tcp 1040 ------- 1 0.0 4.0 1 4
- 0.128413 0 2 tcp 1040 ------- 1 0.0 4.0 1 4
+ 0.128413 0 2 tcp 1040 ------- 1 0.0 4.0 2 5
- 0.128496 0 2 tcp 1040 ------- 1 0.0 4.0 2 5
r 0.131613 2 1 ack 40 ------- 2 5.0 1.0 0 3
0.13161  1  0  5  0  cwnd_ 2.000 
+ 0.131613 1 2 tcp 1040 ------- 2 1.0 5.0 1 6
- 0.131613 1 2 tcp 1040 ------- 2 1.0 5.0 1 6
+ 0.131613 1 2 tcp 1040 ------- 2 1.0 5.0 2 7
- 0.131696 1 2 tcp 1040 ------- 2 1.0 5.0 2 7
r 0.133496 0 2 tcp 1040 ------- 1 0.0 4.0 1 4
+ 0.133496 2 3 tcp 1040 ------- 1 0.0 4.0 1 4
- 0.133496 2 3 tcp 1040 ------- 1 0.0 4.0 1 4
r 0.133579 0 2 tcp 1040 ------- 1 0.0 4.0 2 5
+ 0.133579 2 3 tcp 1040 ------- 1 0.0 4.0 2 5
r 0.136696 1 2 tcp 1040 ------- 2 1.0 5.0 1 6
+ 0.136696 2 3 tcp 1040 ------- 2 1.0 5.0 1 6
r 0.136779 1 2 tcp 1040 ------- 2 1.0 5.0 2 7
+ 0.136779 2 3 tcp 1040 ------- 2 1.0 5.0 2 7
- 0.216696 2 3 tcp 1040 ------- 1 0.0 4.0 2 5
r 0.217696 2 3 tcp 1040 ------- 1 0.0 4.0 1 4
+ 0.217696 3 4 tcp 1040 ------- 1 0.0 4.0 1 4
- 0.217696 3 4 tcp 1040 ------- 1 0.0 4.0 1 4
r 0.222779 3 4 tcp 1040 ------- 1 0.0 4.0 1 4
+ 0.222779 4 3 ack 40 ------- 1 4.0 0.0 1 8
- 0.222779 4 3 ack 40 ------- 1 4.0 0.0 1 8
r 0.227782 4 3 ack 40 ------- 1 4.0 0.0 1 8
+ 0.227782 3 2 ack 40 ------- 1 4.0 0.0 1 8
- 0.227782 3 2 ack 40 ------- 1 4.0 0.0 1 8
r 0.231982 3 2 ack 40 ------- 1 4.0 0.0 1 8
+ 0.231982 2 0 ack 40 ------- 1 4.0 0.0 1 8
- 0.231982 2 0 ack 40 ------- 1 4.0 0.0 1 8
r 0.236986 2 0 ack 40 ------- 1 4.0 0.0 1 8
0.23699  0  0  4  0  cwnd_ 3.000 
+ 0.236986 0 2 tcp 1040 ------- 1 0.0 4.0 3 9
- 0.236986 0 2 tcp 1040 ------- 1 0.0 4.0 3 9
+ 0.236986 0 2 tcp 1040 ------- 1 0.0 4.0 4 10
- 0.237069 0 2 tcp 1040 ------- 1 0.0 4.0 4 10
r 0.242069 0 2 tcp 1040 ------- 1 0.0 4.0 3 9
+ 0.242069 2 3 tcp 1040 ------- 1 0.0 4.0 3 9
r 0.242152 0 2 tcp 1040 ------- 1 0.0 4.0 4 10
+ 0.242152 2 3 tcp 1040 ------- 1 0.0 4.0 4 10
- 0.299896 2 3 tcp 1040 ------- 2 1.0 5.0 1 6
r 0.300896 2 3 tcp 1040 ------- 1 0.0 4.0 2 5
+ 0.300896 3 4 tcp 1040 ------- 1 0.0 4.0 2 5
- 0.300896 3 4 tcp 1040 ------- 1 0.0 4.0 2 5
r 0.305979 3 4 tcp 1040 ------- 1 0.0 4.0 2 5
+ 0.305979 4 3 ack 40 ------- 1 4.0 0.0 2 11
- 0.305979 4 3 ack 40 ------- 1 4.0 0.0 2 11
r 0.310982 4 3 ack 40 ------- 1 4.0 0.0 2 11
+ 0.310982 3 2 ack 40 ------- 1 4.0 0.0 2 11
- 0.310982 3 2 ack 40 ------- 1 4.0 0.0 2 11
r 0.315182 3 2 ack 40 ------- 1 4.0 0.0 2 11
+ 0.315182 2 0 ack 40 ------- 1 4.0 0.0 2 11
- 0.315182 2 0 ack 40 ------- 1 4.0 0.0 2 11
r 0.320186 2 0 ack 40 ------- 1 4.0 0.0 2 11
0.32019  0  0  4  0  cwnd_ 4.000 
+ 0.320186 0 2 tcp 1040 ------- 1 0.0 4.0 5 12
- 0.320186 0 2 tcp 1040 ------- 1 0.0 4.0 5 12
+ 0.320186 0 2 tcp 1040 ------- 1 0.0 4.0 6 13
- 0.320269 0 2 tcp 1040 ------- 1 0.0 4.0 6 13
r 0.325269 0 2 tcp 1040 ------- 1 0.0 4.0 5 12
+ 0.325269 2 3 tcp 1040 ------- 1 0.0 4.0 5 12
r 0.325352 0 2 tcp 1040 ------- 1 0.0 4.0 6 13
+ 0.325352 2 3 tcp 1040 ------- 1 0.0 4.0 6 13
0.33161  1  0  5  0  cwnd_ 1.000 
+ 0.331613 1 2 tcp 1040 ---A--- 2 1.0 5.0 1 14
- 0.331613 1 2 tcp 1040 ---A--- 2 1.0 5.0 1 14
r 0.336696 1 2 tcp 1040 ---A--- 2 1.0 5.0 1 14
+ 0.336696 2 3 tcp 1040 ---A--- 2 1.0 5.0 1 14
- 0.383096 2 3 tcp 1040 ------- 2 1.0 5.0 2 7
r 0.384096 2 3 tcp 1040 ------- 2 1.0 5.0 1 6
+ 0.384096 3 5 tcp 1040 ------- 2 1.0 5.0 1 6
- 0.384096 3 5 tcp 1040 ------- 2 1.0 5.0 1 6
r 0.389179 3 5 tcp 1040 ------- 2 1.0 5.0 1 6
+ 0.389179 5 3 ack 40 ------- 2 5.0 1.0 1 15
- 0.389179 5 3 ack 40 ------- 2 5.0 1.0 1 15
r 0.394182 5 3 ack 40 ------- 2 5.0 1.0 1 15
+ 0.394182 3 2 ack 40 ------- 2 5.0 1.0 1 15
- 0.394182 3 2 ack 40 ------- 2 5.0 1.0 1 15
r 0.398382 3 2 ack 40 ------- 2 5.0 1.0 1 15
+ 0.398382 2 1 ack 40 ------- 2 5.0 1.0 1 15
- 0.398382 2 1 ack 40 ------- 2 5.0 1.0 1 15
r 0.403386 2 1 ack 40 ------- 2 5.0 1.0 1 15
0.40339  1  0  5  0  cwnd_ 2.000 
+ 0.403386 1 2 tcp 1040 ------- 2 1.0 5.0 2 16
- 0.403386 1 2 tcp 1040 ------- 2 1.0 5.0 2 16
+ 0.403386 1 2 tcp 1040 ------- 2 1.0 5.0 3 17
- 0.403469 1 2 tcp 1040 ------- 2 1.0 5.0 3 17
r 0.408469 1 2 tcp 1040 ------- 2 1.0 5.0 2 16
+ 0.408469 2 3 tcp 1040 ------- 2 1.0 5.0 2 16
r 0.408552 1 2 tcp 1040 ------- 2 1.0 5.0 3 17
+ 0.408552 2 3 tcp 1040 ------- 2 1.0 5.0 3 17
- 0.466296 2 3 tcp 1040 ------- 1 0.0 4.0 3 9
r 0.467296 2 3 tcp 1040 ------- 2 1.0 5.0 2 7
+ 0.467296 3 5 tcp 1040 ------- 2 1.0 5.0 2 7
- 0.467296 3 5 tcp 1040 ------- 2 1.0 5.0 2 7
r 0.472379 3 5 tcp 1040 ------- 2 1.0 5.0 2 7
+ 0.472379 5 3 ack 40 ------- 2 5.0 1.0 2 18
- 0.472379 5 3 ack 40 ------- 2 5.0 1.0 2 18
r 0.477382 5 3 ack 40 ------- 2 5.0 1.0 2 18
+ 0.477382 3 2 ack 40 ------- 2 5.0 1.0 2 18
- 0.477382 3 2 ack 40 ------- 2 5.0 1.0 2 18
r 0.481582 3 2 ack 40 ------- 2 5.0 1.0 2 18
+ 0.481582 2 1 ack 40 ------- 2 5.0 1.0 2 18
- 0.481582 2 1 ack 40 ------- 2 5.0 1.0 2 18
r 0.486586 2 1 ack 40 ------- 2 5.0 1.0 2 18
0.48659  1  0  5  0  cwnd_ 2.500 
+ 0.486586 1 2 tcp 1040 ------- 2 1.0 5.0 4 19
- 0.486586 1 2 tcp 1040 ------- 2 1.0 5.0 4 19
r 0.491669 1 2 tcp 1040 ------- 2 1.0 5.0 4 19
+ 0.491669 2 3 tcp 1040 ------- 2 1.0 5.0 4 19
0.52019  0  0  4  0  cwnd_ 1.000 
+ 0.520186 0 2 tcp 1040 ---A--- 1 0.0 4.0 3 20
- 0.520186 0 2 tcp 1040 ---A--- 1 0.0 4.0 3 20
r 0.525269 0 2 tcp 1040 ---A--- 1 0.0 4.0 3 20
+ 0.525269 2 3 tcp 1040 ---A--- 1 0.0 4.0 3 20
- 0.549496 2 3 tcp 1040 ------- 1 0.0 4.0 4 10
r 0.550496 2 3 tcp 1040 ------- 1 0.0 4.0 3 9
+ 0.550496 3 4 tcp 1040 ------- 1 0.0 4.0 3 9
- 0.550496 3 4 tcp 1040 ------- 1 0.0 4.0 3 9
r 0.555579 3 4 tcp 1040 ------- 1 0.0 4.0 3 9
+ 0.555579 4 3 ack 40 ------- 1 4.0 0.0 3 21
- 0.555579 4 3 ack 40 ------- 1 4.0 0.0 3 21
r 0.560582 4 3 ack 40 ------- 1 4.0 0.0 3 21
+ 0.560582 3 2 ack 40 ------- 1 4.0 0.0 3 21
- 0.560582 3 2 ack 40 ------- 1 4.0 0.0 3 21
r 0.564782 3 2 ack 40 ------- 1 4.0 0.0 3 21
+ 0.564782 2 0 ack 40 ------- 1 4.0 0.0 3 21
- 0.564782 2 0 ack 40 ------- 1 4.0 0.0 3 21
r 0.569786 2 0 ack 40 ------- 1 4.0 0.0 3 21
0.56979  0  0  4  0  cwnd_ 2.000 
+ 0.569786 0 2 tcp 1040 ------- 1 0.0 4.0 4 22
- 0.569786 0 2 tcp 1040 ------- 1 0.0 4.0 4 22
+ 0.569786 0 2 tcp 1040 ------- 1 0.0 4.0 5 23
- 0.569869 0 2 tcp 1040 ------- 1 0.0 4.0 5 23
r 0.574869 0 2 tcp 1040 ------- 1 0.0 4.0 4 22
+ 0.574869 2 3 tcp 1040 ------- 1 0.0 4.0 4 22
r 0.574952 0 2 tcp 1040 ------- 1 0.0 4.0 5 23
+ 0.574952 2 3 tcp 1040 ------- 1 0.0 4.0 5 23
- 0.632696 2 3 tcp 1040 ------- 1 0.0 4.0 5 12
r 0.633696 2 3 tcp 1040 ------- 1 0.0 4.0 4 10
+ 0.633696 3 4 tcp 1040 ------- 1 0.0 4.0 4 10
- 0.633696 3 4 tcp 1040 ------- 1 0.0 4.0 4 10
r 0.638779 3 4 tcp 1040 ------- 1 0.0 4.0 4 10
+ 0.638779 4 3 ack 40 ------- 1 4.0 0.0 4 24
- 0.638779 4 3 ack 40 ------- 1 4.0 0.0 4 24
r 0.643782 4 3 ack 40 ------- 1 4.0 0.0 4 24
+ 0.643782 3 2 ack 40 ------- 1 4.0 0.0 4 24
- 0.643782 3 2 ack 40 ------- 1 4.0 0.0 4 24
r 0.647982 3 2 ack 40 ------- 1 4.0 0.0 4 24
+ 0.647982 2 0 ack 40 ------- 1 4.0 0.0 4 24
- 0.647982 2 0 ack 40 ------- 1 4.0 0.0 4 24
r 0.652986 2 0 ack 40 ------- 1 4.0 0.0 4 24
0.65299  0  0  4  0  cwnd_ 2.500 
+ 0.652986 0 2 tcp 1040 ------- 1 0.0 4.0 6 25
- 0.652986 0 2 tcp 1040 ------- 1 0.0 4.0 6 25
r 0.658069 0 2 tcp 1040 ------- 1 0.0 4.0 6 25
+ 0.658069 2 3 tcp 1040 ------- 1 0.0 4.0 6 25
- 0.715896 2 3 tcp 1040 ------- 1 0.0 4.0 6 13
r 0.716896 2 3 tcp 1040 ------- 1 0.0 4.0 5 12
+ 0.716896 3 4 tcp 1040 ------- 1 0.0 4.0 5 12
- 0.716896 3 4 tcp 1040 ------- 1 0.0 4.0 5 12
r 0.721979 3 4 tcp 1040 ------- 1 0.0 4.0 5 12
+ 0.721979 4 3 ack 40 ------- 1 4.0 0.0 5 26
- 0.721979 4 3 ack 40 ------- 1 4.0 0.0 5 26
r 0.726982 4 3 ack 40 ------- 1 4.0 0.0 5 26
+ 0.726982 3 2 ack 40 ------- 1 4.0 0.0 5 26
- 0.726982 3 2 ack 40 ------- 1 4.0 0.0 5 26
r 0.731182 3 2 ack 40 ------- 1 4.0 0.0 5 26
+ 0.731182 2 0 ack 40 ------- 1 4.0 0.0 5 26
- 0.731182 2 0 ack 40 ------- 1 4.0 0.0 5 26
r 0.736186 2 0 ack 40 ------- 1 4.0 0.0 5 26
0.73619  0  0  4  0  cwnd_ 2.900 
+ 0.736186 0 2 tcp 1040 ------- 1 0.0 4.0 7 27
- 0.736186 0 2 tcp 1040 ------- 1 0.0 4.0 7 27
r 0.741269 0 2 tcp 1040 ------- 1 0.0 4.0 7 27
+ 0.741269 2 3 tcp 1040 ------- 1 0.0 4.0 7 27
- 0.799096 2 3 tcp 1040 ---A--- 2 1.0 5.0 1 14
r 0.800096 2 3 tcp 1040 ------- 1 0.0 4.0 6 13
+ 0.800096 3 4 tcp 1040 ------- 1 0.0 4.0 6 13
- 0.800096 3 4 tcp 1040 ------- 1 0.0 4.0 6 13
r 0.805179 3 4 tcp 1040 ------- 1 0.0 4.0 6 13
+ 0.805179 4 3 ack 40 ------- 1 4.0 0.0 6 28
- 0.805179 4 3 ack 40 ------- 1 4.0 0.0 6 28
r 0.810182 4 3 ack 40 ------- 1 4.0 0.0 6 28
+ 0.810182 3 2 ack 40 ------- 1 4.0 0.0 6 28
- 0.810182 3 2 ack 40 ------- 1 4.0 0.0 6 28
r 0.814382 3 2 ack 40 ------- 1 4.0 0.0 6 28
+ 0.814382 2 0 ack 40 ------- 1 4.0 0.0 6 28
- 0.814382 2 0 ack 40 ------- 1 4.0 0.0 6 28
r 0.819386 2 0 ack 40 ------- 1 4.0 0.0 6 28
0.81939  0  0  4  0  cwnd_ 3.245 
+ 0.819386 0 2 tcp 1040 ------- 1 0.0 4.0 8 29
- 0.819386 0 2 tcp 1040 ------- 1 0.0 4.0 8 29
+ 0.819386 0 2 tcp 1040 ------- 1 0.0 4.0 9 30
- 0.819469 0 2 tcp 1040 ------- 1 0.0 4.0 9 30
r 0.824469 0 2 tcp 1040 ------- 1 0.0 4.0 8 29
+ 0.824469 2 3 tcp 1040 ------- 1 0.0 4.0 8 29
r 0.824552 0 2 tcp 1040 ------- 1 0.0 4.0 9 30
+ 0.824552 2 3 tcp 1040 ------- 1 0.0 4.0 9 30
d 0.824552 2 3 tcp 1040 ------- 1 0.0 4.0 9 30
- 0.882296 2 3 tcp 1040 ------- 2 1.0 5.0 2 16
r 0.883296 2 3 tcp 1040 ---A--- 2 1.0 5.0 1 14
+ 0.883296 3 5 tcp 1040 ---A--- 2 1.0 5.0 1 14
- 0.883296 3 5 tcp 1040 ---A--- 2 1.0 5.0 1 14
0.88659  1  0  5  0  cwnd_ 1.000 
+ 0.886586 1 2 tcp 1040 ---A--- 2 1.0 5.0 3 31
- 0.886586 1 2 tcp 1040 ---A--- 2 1.0 5.0 3 31
r 0.888379 3 5 tcp 1040 ---A--- 2 1.0 5.0 1 14
+ 0.888379 5 3 ack 40 ------- 2 5.0 1.0 2 32
- 0.888379 5 3 ack 40 ------- 2 5.0 1.0 2 32
r 0.891669 1 2 tcp 1040 ---A--- 2 1.0 5.0 3 31
+ 0.891669 2 3 tcp 1040 ---A--- 2 1.0 5.0 3 31
r 0.893382 5 3 ack 40 ------- 2 5.0 1.0 2 32
+ 0.893382 3 2 ack 40 ------- 2 5.0 1.0 2 32
- 0.893382 3 2 ack 40 ------- 2 5.0 1.0 2 32
r 0.897582 3 2 ack 40 ------- 2 5.0 1.0 2 32
+ 0.897582 2 1 ack 40 ------- 2 5.0 1.0 2 32
- 0.897582 2 1 ack 40 ------- 2 5.0 1.0 2 32
r 0.902586 2 1 ack 40 ------- 2 5.0 1.0 2 32
+ 0.902586 1 2 tcp 1040 ------- 2 1.0 5.0 4 33
- 0.902586 1 2 tcp 1040 ------- 2 1.0 5.0 4 33
r 0.907669 1 2 tcp 1040 ------- 2 1.0 5.0 4 33
+ 0.907669 2 3 tcp 1040 ------- 2 1.0 5.0 4 33
d 0.907669 2 3 tcp 1040 ------- 2 1.0 5.0 4 33
- 0.965496 2 3 tcp 1040 ------- 2 1.0 5.0 3 17
r 0.966496 2 3 tcp 1040 ------- 2 1.0 5.0 2 16
+ 0.966496 3 5 tcp 1040 ------- 2 1.0 5.0 2 16
- 0.966496 3 5 tcp 1040 ------- 2 1.0 5.0 2 16
r 0.971579 3 5 tcp 1040 ------- 2 1.0 5.0 2 16
+ 0.971579 5 3 ack 40 ------- 2 5.0 1.0 2 34
- 0.971579 5 3 ack 40 ------- 2 5.0 1.0 2 34
r 0.976582 5 3 ack 40 ------- 2 5.0 1.0 2 34
+ 0.976582 3 2 ack 40 ------- 2 5.0 1.0 2 34
- 0.976582 3 2 ack 40 ------- 2 5.0 1.0 2 34
r 0.980782 3 2 ack 40 ------- 2 5.0 1.0 2 34
+ 0.980782 2 1 ack 40 ------- 2 5.0 1.0 2 34
- 0.980782 2 1 ack 40 ------- 2 5.0 1.0 2 34
r 0.985786 2 1 ack 40 ------- 2 5.0 1.0 2 34
+ 0.985786 1 2 tcp 1040 ------- 2 1.0 5.0 5 35
- 0.985786 1 2 tcp 1040 ------- 2 1.0 5.0 5 35
r 0.990869 1 2 tcp 1040 ------- 2 1.0 5.0 5 35
+ 0.990869 2 3 tcp 1040 ------- 2 1.0 5.0 5 35
- 1.048696 2 3 tcp 1040 ------- 2 1.0 5.0 4 19
r 1.049696 2 3 tcp 1040 ------- 2 1.0 5.0 3 17
+ 1.049696 3 5 tcp 1040 ------- 2 1.0 5.0 3 17
- 1.049696 3 5 tcp 1040 ------- 2 1.0 5.0 3 17
r 1.054779 3 5 tcp 1040 ------- 2 1.0 5.0 3 17
+ 1.054779 5 3 ack 40 ------- 2 5.0 1.0 3 36
- 1.054779 5 3 ack 40 ------- 2 5.0 1.0 3 36
r 1.059782 5 3 ack 40 ------- 2 5.0 1.0 3 36
+ 1.059782 3 2 ack 40 ------- 2 5.0 1.0 3 36
- 1.059782 3 2 ack 40 ------- 2 5.0 1.0 3 36
r 1.063982 3 2 ack 40 ------- 2 5.0 1.0 3 36
+ 1.063982 2 1 ack 40 ------- 2 5.0 1.0 3 36
- 1.063982 2 1 ack 40 ------- 2 5.0 1.0 3 36
r 1.068986 2 1 ack 40 ------- 2 5.0 1.0 3 36
1.06899  1  0  5  0  cwnd_ 2.000 
- 1.131896 2 3 tcp 1040 ---A--- 1 0.0 4.0 3 20
r 1.132896 2 3 tcp 1040 ------- 2 1.0 5.0 4 19
+ 1.132896 3 5 tcp 1040 ------- 2 1.0 5.0 4 19
- 1.132896 3 5 tcp 1040 ------- 2 1.0 5.0 4 19
r 1.137979 3 5 tcp 1040 ------- 2 1.0 5.0 4 19
+ 1.137979 5 3 ack 40 ------- 2 5.0 1.0 4 37
- 1.137979 5 3 ack 40 ------- 2 5.0 1.0 4 37
r 1.142982 5 3 ack 40 ------- 2 5.0 1.0 4 37
+ 1.142982 3 2 ack 40 ------- 2 5.0 1.0 4 37
- 1.142982 3 2 ack 40 ------- 2 5.0 1.0 4 37
r 1.147182 3 2 ack 40 ------- 2 5.0 1.0 4 37
+ 1.147182 2 1 ack 40 ------- 2 5.0 1.0 4 37
- 1.147182 2 1 ack 40 ------- 2 5.0 1.0 4 37
r 1.152186 2 1 ack 40 ------- 2 5.0 1.0 4 37
1.15219  1  0  5  0  cwnd_ 2.500 
+ 1.152186 1 2 tcp 1040 ------- 2 1.0 5.0 6 38
- 1.152186 1 2 tcp 1040 ------- 2 1.0 5.0 6 38
r 1.157269 1 2 tcp 1040 ------- 2 1.0 5.0 6 38
+ 1.157269 2 3 tcp 1040 ------- 2 1.0 5.0 6 38
- 1.215096 2 3 tcp 1040 ------- 1 0.0 4.0 4 22
r 1.216096 2 3 tcp 1040 ---A--- 1 0.0 4.0 3 20
+ 1.216096 3 4 tcp 1040 ---A--- 1 0.0 4.0 3 20
- 1.216096 3 4 tcp 1040 ---A--- 1 0.0 4.0 3 20
1.21939  0  0  4  0  cwnd_ 1.000 
+ 1.219386 0 2 tcp 1040 ---A--- 1 0.0 4.0 7 39
- 1.219386 0 2 tcp 1040 ---A--- 1 0.0 4.0 7 39
r 1.221179 3 4 tcp 1040 ---A--- 1 0.0 4.0 3 20
+ 1.221179 4 3 ack 40 ------- 1 4.0 0.0 6 40
- 1.221179 4 3 ack 40 ------- 1 4.0 0.0 6 40
r 1.224469 0 2 tcp 1040 ---A--- 1 0.0 4.0 7 39
+ 1.224469 2 3 tcp 1040 ---A--- 1 0.0 4.0 7 39
r 1.226182 4 3 ack 40 ------- 1 4.0 0.0 6 40
+ 1.226182 3 2 ack 40 ------- 1 4.0 0.0 6 40
- 1.226182 3 2 ack 40 ------- 1 4.0 0.0 6 40
r 1.230382 3 2 ack 40 ------- 1 4.0 0.0 6 40
+ 1.230382 2 0 ack 40 ------- 1 4.0 0.0 6 40
- 1.230382 2 0 ack 40 ------- 1 4.0 0.0 6 40
r 1.235386 2 0 ack 40 ------- 1 4.0 0.0 6 40
+ 1.235386 0 2 tcp 1040 ------- 1 0.0 4.0 8 41
- 1.235386 0 2 tcp 1040 ------- 1 0.0 4.0 8 41
r 1.240469 0 2 tcp 1040 ------- 1 0.0 4.0 8 41
+ 1.240469 2 3 tcp 1040 ------- 1 0.0 4.0 8 41
- 1.298296 2 3 tcp 1040 ------- 1 0.0 4.0 5 23
r 1.299296 2 3 tcp 1040 ------- 1 0.0 4.0 4 22
+ 1.299296 3 4 tcp 1040 ------- 1 0.0 4.0 4 22
- 1.299296 3 4 tcp 1040 ------- 1 0.0 4.0 4 22
r 1.304379 3 4 tcp 1040 ------- 1 0.0 4.0 4 22
+ 1.304379 4 3 ack 40 ------- 1 4.0 0.0 6 42
- 1.304379 4 3 ack 40 ------- 1 4.0 0.0 6 42
r 1.309382 4 3 ack 40 ------- 1 4.0 0.0 6 42
+ 1.309382 3 2 ack 40 ------- 1 4.0 0.0 6 42
- 1.309382 3 2 ack 40 ------- 1 4.0 0.0 6 42
r 1.313582 3 2 ack 40 ------- 1 4.0 0.0 6 42
+ 1.313582 2 0 ack 40 ------- 1 4.0 0.0 6 42
- 1.313582 2 0 ack 40 ------- 1 4.0 0.0 6 42
r 1.318586 2 0 ack 40 ------- 1 4.0 0.0 6 42
+ 1.318586 0 2 tcp 1040 ------- 1 0.0 4.0 9 43
- 1.318586 0 2 tcp 1040 ------- 1 0.0 4.0 9 43
r 1.323669 0 2 tcp 1040 ------- 1 0.0 4.0 9 43
+ 1.323669 2 3 tcp 1040 ------- 1 0.0 4.0 9 43
- 1.381496 2 3 tcp 1040 ------- 1 0.0 4.0 6 25
r 1.382496 2 3 tcp 1040 ------- 1 0.0 4.0 5 23
+ 1.382496 3 4 tcp 1040 ------- 1 0.0 4.0 5 23
- 1.382496 3 4 tcp 1040 ------- 1 0.0 4.0 5 23
r 1.387579 3 4 tcp 1040 ------- 1 0.0 4.0 5 23
+ 1.387579 4 3 ack 40 ------- 1 4.0 0.0 6 44
- 1.387579 4 3 ack 40 ------- 1 4.0 0.0 6 44
r 1.392582 4 3 ack 40 ------- 1 4.0 0.0 6 44
+ 1.392582 3 2 ack 40 ------- 1 4.0 0.0 6 44
- 1.392582 3 2 ack 40 ------- 1 4.0 0.0 6 44
r 1.396782 3 2 ack 40 ------- 1 4.0 0.0 6 44
+ 1.396782 2 0 ack 40 ------- 1 4.0 0.0 6 44
- 1.396782 2 0 ack 40 ------- 1 4.0 0.0 6 44
r 1.401786 2 0 ack 40 ------- 1 4.0 0.0 6 44
- 1.464696 2 3 tcp 1040 ------- 1 0.0 4.0 7 27
r 1.465696 2 3 tcp 1040 ------- 1 0.0 4.0 6 25
+ 1.465696 3 4 tcp 1040 ------- 1 0.0 4.0 6 25
- 1.465696 3 4 tcp 1040 ------- 1 0.0 4.0 6 25
r 1.470779 3 4 tcp 1040 ------- 1 0.0 4.0 6 25
+ 1.470779 4 3 ack 40 ------- 1 4.0 0.0 6 45
- 1.470779 4 3 ack 40 ------- 1 4.0 0.0 6 45
r 1.475782 4 3 ack 40 ------- 1 4.0 0.0 6 45
+ 1.475782 3 2 ack 40 ------- 1 4.0 0.0 6 45
- 1.475782 3 2 ack 40 ------- 1 4.0 0.0 6 45
r 1.479982 3 2 ack 40 ------- 1 4.0 0.0 6 45
+ 1.479982 2 0 ack 40 ------- 1 4.0 0.0 6 45
- 1.479982 2 0 ack 40 ------- 1 4.0 0.0 6 45
r 1.484986 2 0 ack 40 ------- 1 4.0 0.0 6 45
- 1.547896 2 3 tcp 1040 ------- 1 0.0 4.0 8 29
r 1.548896 2 3 tcp 1040 ------- 1 0.0 4.0 7 27
+ 1.548896 3 4 tcp 1040 ------- 1 0.0 4.0 7 27
- 1.548896 3 4 tcp 1040 ------- 1 0.0 4.0 7 27
r 1.553979 3 4 tcp 1040 ------- 1 0.0 4.0 7 27
+ 1.553979 4 3 ack 40 ------- 1 4.0 0.0 7 46
- 1.553979 4 3 ack 40 ------- 1 4.0 0.0 7 46
r 1.558982 4 3 ack 40 ------- 1 4.0 0.0 7 46
+ 1.558982 3 2 ack 40 ------- 1 4.0 0.0 7 46
- 1.558982 3 2 ack 40 ------- 1 4.0 0.0 7 46
r 1.563182 3 2 ack 40 ------- 1 4.0 0.0 7 46
+ 1.563182 2 0 ack 40 ------- 1 4.0 0.0 7 46
- 1.563182 2 0 ack 40 ------- 1 4.0 0.0 7 46
r 1.568186 2 0 ack 40 ------- 1 4.0 0.0 7 46
1.56819  0  0  4  0  cwnd_ 2.000 
- 1.631096 2 3 tcp 1040 ---A--- 2 1.0 5.0 3 31
r 1.632096 2 3 tcp 1040 ------- 1 0.0 4.0 8 29
+ 1.632096 3 4 tcp 1040 ------- 1 0.0 4.0 8 29
- 1.632096 3 4 tcp 1040 ------- 1 0.0 4.0 8 29
r 1.637179 3 4 tcp 1040 ------- 1 0.0 4.0 8 29
+ 1.637179 4 3 ack 40 ------- 1 4.0 0.0 8 47
- 1.637179 4 3 ack 40 ------- 1 4.0 0.0 8 47
r 1.642182 4 3 ack 40 ------- 1 4.0 0.0 8 47
+ 1.642182 3 2 ack 40 ------- 1 4.0 0.0 8 47
- 1.642182 3 2 ack 40 ------- 1 4.0 0.0 8 47
r 1.646382 3 2 ack 40 ------- 1 4.0 0.0 8 47
+ 1.646382 2 0 ack 40 ------- 1 4.0 0.0 8 47
- 1.646382 2 0 ack 40 ------- 1 4.0 0.0 8 47
r 1.651386 2 0 ack 40 ------- 1 4.0 0.0 8 47
1.65139  0  0  4  0  cwnd_ 2.500 
+ 1.651386 0 2 tcp 1040 ------- 1 0.0 4.0 10 48
- 1.651386 0 2 tcp 1040 ------- 1 0.0 4.0 10 48
r 1.656469 0 2 tcp 1040 ------- 1 0.0 4.0 10 48
+ 1.656469 2 3 tcp 1040 ------- 1 0.0 4.0 10 48
- 1.714296 2 3 tcp 1040 ------- 2 1.0 5.0 5 35
r 1.715296 2 3 tcp 1040 ---A--- 2 1.0 5.0 3 31
+ 1.715296 3 5 tcp 1040 ---A--- 2 1.0 5.0 3 31
- 1.715296 3 5 tcp 1040 ---A--- 2 1.0 5.0 3 31
r 1.720379 3 5 tcp 1040 ---A--- 2 1.0 5.0 3 31
+ 1.720379 5 3 ack 40 ------- 2 5.0 1.0 4 49
- 1.720379 5 3 ack 40 ------- 2 5.0 1.0 4 49
r 1.725382 5 3 ack 40 ------- 2 5.0 1.0 4 49
+ 1.725382 3 2 ack 40 ------- 2 5.0 1.0 4 49
- 1.725382 3 2 ack 40 ------- 2 5.0 1.0 4 49
r 1.729582 3 2 ack 40 ------- 2 5.0 1.0 4 49
+ 1.729582 2 1 ack 40 ------- 2 5.0 1.0 4 49
- 1.729582 2 1 ack 40 ------- 2 5.0 1.0 4 49
r 1.734586 2 1 ack 40 ------- 2 5.0 1.0 4 49
+ 1.734586 1 2 tcp 1040 ------- 2 1.0 5.0 7 50
- 1.734586 1 2 tcp 1040 ------- 2 1.0 5.0 7 50
r 1.739669 1 2 tcp 1040 ------- 2 1.0 5.0 7 50
+ 1.739669 2 3 tcp 1040 ------- 2 1.0 5.0 7 50
- 1.797496 2 3 tcp 1040 ------- 2 1.0 5.0 6 38
r 1.798496 2 3 tcp 1040 ------- 2 1.0 5.0 5 35
+ 1.798496 3 5 tcp 1040 ------- 2 1.0 5.0 5 35
- 1.798496 3 5 tcp 1040 ------- 2 1.0 5.0 5 35
r 1.803579 3 5 tcp 1040 ------- 2 1.0 5.0 5 35
+ 1.803579 5 3 ack 40 ------- 2 5.0 1.0 5 51
- 1.803579 5 3 ack 40 ------- 2 5.0 1.0 5 51
r 1.808582 5 3 ack 40 ------- 2 5.0 1.0 5 51
+ 1.808582 3 2 ack 40 ------- 2 5.0 1.0 5 51
- 1.808582 3 2 ack 40 ------- 2 5.0 1.0 5 51
r 1.812782 3 2 ack 40 ------- 2 5.0 1.0 5 51
+ 1.812782 2 1 ack 40 ------- 2 5.0 1.0 5 51
- 1.812782 2 1 ack 40 ------- 2 5.0 1.0 5 51
r 1.817786 2 1 ack 40 ------- 2 5.0 1.0 5 51
1.81779  1  0  5  0  cwnd_ 2.900 
- 1.880696 2 3 tcp 1040 ---A--- 1 0.0 4.0 7 39
r 1.881696 2 3 tcp 1040 ------- 2 1.0 5.0 6 38
+ 1.881696 3 5 tcp 1040 ------- 2 1.0 5.0 6 38
- 1.881696 3 5 tcp 1040 ------- 2 1.0 5.0 6 38
r 1.886779 3 5 tcp 1040 ------- 2 1.0 5.0 6 38
+ 1.886779 5 3 ack 40 ------- 2 5.0 1.0 6 52
- 1.886779 5 3 ack 40 ------- 2 5.0 1.0 6 52
r 1.891782 5 3 ack 40 ------- 2 5.0 1.0 6 52
+ 1.891782 3 2 ack 40 ------- 2 5.0 1.0 6 52
- 1.891782 3 2 ack 40 ------- 2 5.0 1.0 6 52
r 1.895982 3 2 ack 40 ------- 2 5.0 1.0 6 52
+ 1.895982 2 1 ack 40 ------- 2 5.0 1.0 6 52
- 1.895982 2 1 ack 40 ------- 2 5.0 1.0 6 52
r 1.900986 2 1 ack 40 ------- 2 5.0 1.0 6 52
1.90099  1  0  5  0  cwnd_ 3.245 
+ 1.900986 1 2 tcp 1040 ------- 2 1.0 5.0 8 53
- 1.900986 1 2 tcp 1040 ------- 2 1.0 5.0 8 53
+ 1.900986 1 2 tcp 1040 ------- 2 1.0 5.0 9 54
- 1.901069 1 2 tcp 1040 ------- 2 1.0 5.0 9 54
r 1.906069 1 2 tcp 1040 ------- 2 1.0 5.0 8 53
+ 1.906069 2 3 tcp 1040 ------- 2 1.0 5.0 8 53
r 1.906152 1 2 tcp 1040 ------- 2 1.0 5.0 9 54
+ 1.906152 2 3 tcp 1040 ------- 2 1.0 5.0 9 54
- 1.963896 2 3 tcp 1040 ------- 1 0.0 4.0 8 41
r 1.964896 2 3 tcp 1040 ---A--- 1 0.0 4.0 7 39
+ 1.964896 3 4 tcp 1040 ---A--- 1 0.0 4.0 7 39
- 1.964896 3 4 tcp 1040 ---A--- 1 0.0 4.0 7 39
r 1.969979 3 4 tcp 1040 ---A--- 1 0.0 4.0 7 39
+ 1.969979 4 3 ack 40 ------- 1 4.0 0.0 8 55
- 1.969979 4 3 ack 40 ------- 1 4.0 0.0 8 55
r 1.974982 4 3 ack 40 ------- 1 4.0 0.0 8 55
+ 1.974982 3 2 ack 40 ------- 1 4.0 0.0 8 55
- 1.974982 3 2 ack 40 ------- 1 4.0 0.0 8 55
r 1.979182 3 2 ack 40 ------- 1 4.0 0.0 8 55
+ 1.979182 2 0 ack 40 ------- 1 4.0 0.0 8 55
- 1.979182 2 0 ack 40 ------- 1 4.0 0.0 8 55
r 1.984186 2 0 ack 40 ------- 1 4.0 0.0 8 55
+ 1.984186 0 2 tcp 1040 ------- 1 0.0 4.0 11 56
- 1.984186 0 2 tcp 1040 ------- 1 0.0 4.0 11 56
r 1.989269 0 2 tcp 1040 ------- 1 0.0 4.0 11 56
+ 1.989269 2 3 tcp 1040 ------- 1 0.0 4.0 11 56
- 2.047096 2 3 tcp 1040 ------- 1 0.0 4.0 9 43
r 2.048096 2 3 tcp 1040 ------- 1 0.0 4.0 8 41
+ 2.048096 3 4 tcp 1040 ------- 1 0.0 4.0 8 41
- 2.048096 3 4 tcp 1040 ------- 1 0.0 4.0 8 41
r 2.053179 3 4 tcp 1040 ------- 1 0.0 4.0 8 41
+ 2.053179 4 3 ack 40 ------- 1 4.0 0.0 8 57
- 2.053179 4 3 ack 40 ------- 1 4.0 0.0 8 57
r 2.058182 4 3 ack 40 ------- 1 4.0 0.0 8 57
+ 2.058182 3 2 ack 40 ------- 1 4.0 0.0 8 57
- 2.058182 3 2 ack 40 ------- 1 4.0 0.0 8 57
r 2.062382 3 2 ack 40 ------- 1 4.0 0.0 8 57
+ 2.062382 2 0 ack 40 ------- 1 4.0 0.0 8 57
- 2.062382 2 0 ack 40 ------- 1 4.0 0.0 8 57
r 2.067386 2 0 ack 40 ------- 1 4.0 0.0 8 57
+ 2.067386 0 2 tcp 1040 ------- 1 0.0 4.0 12 58
- 2.067386 0 2 tcp 1040 ------- 1 0.0 4.0 12 58
r 2.072469 0 2 tcp 1040 ------- 1 0.0 4.0 12 58
+ 2.072469 2 3 tcp 1040 ------- 1 0.0 4.0 12 58
- 2.130296 2 3 tcp 1040 ------- 1 0.0 4.0 10 48
r 2.131296 2 3 tcp 1040 ------- 1 0.0 4.0 9 43
+ 2.131296 3 4 tcp 1040 ------- 1 0.0 4.0 9 43
- 2.131296 3 4 tcp 1040 ------- 1 0.0 4.0 9 43
r 2.136379 3 4 tcp 1040 ------- 1 0.0 4.0 9 43
+ 2.136379 4 3 ack 40 ------- 1 4.0 0.0 9 59
- 2.136379 4 3 ack 40 ------- 1 4.0 0.0 9 59
r 2.141382 4 3 ack 40 ------- 1 4.0 0.0 9 59
+ 2.141382 3 2 ack 40 ------- 1 4.0 0.0 9 59
- 2.141382 3 2 ack 40 ------- 1 4.0 0.0 9 59
r 2.145582 3 2 ack 40 ------- 1 4.0 0.0 9 59
+ 2.145582 2 0 ack 40 ------- 1 4.0 0.0 9 59
- 2.145582 2 0 ack 40 ------- 1 4.0 0.0 9 59
r 2.150586 2 0 ack 40 ------- 1 4.0 0.0 9 59
2.15059  0  0  4  0  cwnd_ 2.900 
- 2.213496 2 3 tcp 1040 ------- 2 1.0 5.0 7 50
r 2.214496 2 3 tcp 1040 ------- 1 0.0 4.0 10 48
+ 2.214496 3 4 tcp 1040 ------- 1 0.0 4.0 10 48
- 2.214496 3 4 tcp 1040 ------- 1 0.0 4.0 10 48
r 2.219579 3 4 tcp 1040 ------- 1 0.0 4.0 10 48
+ 2.219579 4 3 ack 40 ------- 1 4.0 0.0 10 60
- 2.219579 4 3 ack 40 ------- 1 4.0 0.0 10 60
r 2.224582 4 3 ack 40 ------- 1 4.0 0.0 10 60
+ 2.224582 3 2 ack 40 ------- 1 4.0 0.0 10 60
- 2.224582 3 2 ack 40 ------- 1 4.0 0.0 10 60
r 2.228782 3 2 ack 40 ------- 1 4.0 0.0 10 60
+ 2.228782 2 0 ack 40 ------- 1 4.0 0.0 10 60
- 2.228782 2 0 ack 40 ------- 1 4.0 0.0 10 60
r 2.233786 2 0 ack 40 ------- 1 4.0 0.0 10 60
2.23379  0  0  4  0  cwnd_ 3.245 
+ 2.233786 0 2 tcp 1040 ------- 1 0.0 4.0 13 61
- 2.233786 0 2 tcp 1040 ------- 1 0.0 4.0 13 61
r 2.238869 0 2 tcp 1040 ------- 1 0.0 4.0 13 61
+ 2.238869 2 3 tcp 1040 ------- 1 0.0 4.0 13 61
- 2.296696 2 3 tcp 1040 ------- 2 1.0 5.0 8 53
r 2.297696 2 3 tcp 1040 ------- 2 1.0 5.0 7 50
+ 2.297696 3 5 tcp 1040 ------- 2 1.0 5.0 7 50
- 2.297696 3 5 tcp 1040 ------- 2 1.0 5.0 7 50
r 2.302779 3 5 tcp 1040 ------- 2 1.0 5.0 7 50
+ 2.302779 5 3 ack 40 ------- 2 5.0 1.0 7 62
- 2.302779 5 3 ack 40 ------- 2 5.0 1.0 7 62
r 2.307782 5 3 ack 40 ------- 2 5.0 1.0 7 62
+ 2.307782 3 2 ack 40 ------- 2 5.0 1.0 7 62
- 2.307782 3 2 ack 40 ------- 2 5.0 1.0 7 62
r 2.311982 3 2 ack 40 ------- 2 5.0 1.0 7 62
+ 2.311982 2 1 ack 40 ------- 2 5.0 1.0 7 62
- 2.311982 2 1 ack 40 ------- 2 5.0 1.0 7 62
r 2.316986 2 1 ack 40 ------- 2 5.0 1.0 7 62
2.31699  1  0  5  0  cwnd_ 3.553 
+ 2.316986 1 2 tcp 1040 ------- 2 1.0 5.0 10 63
- 2.316986 1 2 tcp 1040 ------- 2 1.0 5.0 10 63
r 2.322069 1 2 tcp 1040 ------- 2 1.0 5.0 10 63
+ 2.322069 2 3 tcp 1040 ------- 2 1.0 5.0 10 63
- 2.379896 2 3 tcp 1040 ------- 2 1.0 5.0 9 54
r 2.380896 2 3 tcp 1040 ------- 2 1.0 5.0 8 53
+ 2.380896 3 5 tcp 1040 ------- 2 1.0 5.0 8 53
- 2.380896 3 5 tcp 1040 ------- 2 1.0 5.0 8 53
r 2.385979 3 5 tcp 1040 ------- 2 1.0 5.0 8 53
+ 2.385979 5 3 ack 40 ------- 2 5.0 1.0 8 64
- 2.385979 5 3 ack 40 ------- 2 5.0 1.0 8 64
r 2.390982 5 3 ack 40 ------- 2 5.0 1.0 8 64
+ 2.390982 3 2 ack 40 ------- 2 5.0 1.0 8 64
- 2.390982 3 2 ack 40 ------- 2 5.0 1.0 8 64
r 2.395182 3 2 ack 40 ------- 2 5.0 1.0 8 64
+ 2.395182 2 1 ack 40 ------- 2 5.0 1.0 8 64
- 2.395182 2 1 ack 40 ------- 2 5.0 1.0 8 64
r 2.400186 2 1 ack 40 ------- 2 5.0 1.0 8 64
2.40019  1  0  5  0  cwnd_ 3.834 
+ 2.400186 1 2 tcp 1040 ------- 2 1.0 5.0 11 65
- 2.400186 1 2 tcp 1040 ------- 2 1.0 5.0 11 65
r 2.405269 1 2 tcp 1040 ------- 2 1.0 5.0 11 65
+ 2.405269 2 3 tcp 1040 ------- 2 1.0 5.0 11 65
- 2.463096 2 3 tcp 1040 ------- 1 0.0 4.0 11 56
r 2.464096 2 3 tcp 1040 ------- 2 1.0 5.0 9 54
+ 2.464096 3 5 tcp 1040 ------- 2 1.0 5.0 9 54
- 2.464096 3 5 tcp 1040 ------- 2 1.0 5.0 9 54
r 2.469179 3 5 tcp 1040 ------- 2 1.0 5.0 9 54
+ 2.469179 5 3 ack 40 ------- 2 5.0 1.0 9 66
- 2.469179 5 3 ack 40 ------- 2 5.0 1.0 9 66
r 2.474182 5 3 ack 40 ------- 2 5.0 1.0 9 66
+ 2.474182 3 2 ack 40 ------- 2 5.0 1.0 9 66
- 2.474182 3 2 ack 40 ------- 2 5.0 1.0 9 66
r 2.478382 3 2 ack 40 ------- 2 5.0 1.0 9 66
+ 2.478382 2 1 ack 40 ------- 2 5.0 1.0 9 66
- 2.478382 2 1 ack 40 ------- 2 5.0 1.0 9 66
r 2.483386 2 1 ack 40 ------- 2 5.0 1.0 9 66
2.48339  1  0  5  0  cwnd_ 4.095 
+ 2.483386 1 2 tcp 1040 ------- 2 1.0 5.0 12 67
- 2.483386 1 2 tcp 1040 ------- 2 1.0 5.0 12 67
+ 2.483386 1 2 tcp 1040 ------- 2 1.0 5.0 13 68
- 2.483469 1 2 tcp 1040 ------- 2 1.0 5.0 13 68
r 2.488469 1 2 tcp 1040 ------- 2 1.0 5.0 12 67
+ 2.488469 2 3 tcp 1040 ------- 2 1.0 5.0 12 67
r 2.488552 1 2 tcp 1040 ------- 2 1.0 5.0 13 68
+ 2.488552 2 3 tcp 1040 ------- 2 1.0 5.0 13 68
- 2.546296 2 3 tcp 1040 ------- 1 0.0 4.0 12 58
r 2.547296 2 3 tcp 1040 ------- 1 0.0 4.0 11 56
+ 2.547296 3 4 tcp 1040 ------- 1 0.0 4.0 11 56
- 2.547296 3 4 tcp 1040 ------- 1 0.0 4.0 11 56
r 2.552379 3 4 tcp 1040 ------- 1 0.0 4.0 11 56
+ 2.552379 4 3 ack 40 ------- 1 4.0 0.0 11 69
- 2.552379 4 3 ack 40 ------- 1 4.0 0.0 11 69
r 2.557382 4 3 ack 40 ------- 1 4.0 0.0 11 69
+ 2.557382 3 2 ack 40 ------- 1 4.0 0.0 11 69
- 2.557382 3 2 ack 40 ------- 1 4.0 0.0 11 69
r 2.561582 3 2 ack 40 ------- 1 4.0 0.0 11 69
+ 2.561582 2 0 ack 40 ------- 1 4.0 0.0 11 69
- 2.561582 2 0 ack 40 ------- 1 4.0 0.0 11 69
r 2.566586 2 0 ack 40 ------- 1 4.0 0.0 11 69
2.56659  0  0  4  0  cwnd_ 3.553 
+ 2.566586 0 2 tcp 1040 ------- 1 0.0 4.0 14 70
- 2.566586 0 2 tcp 1040 ------- 1 0.0 4.0 14 70
r 2.571669 0 2 tcp 1040 ------- 1 0.0 4.0 14 70
+ 2.571669 2 3 tcp 1040 ------- 1 0.0 4.0 14 70
- 2.629496 2 3 tcp 1040 ------- 1 0.0 4.0 13 61
r 2.630496 2 3 tcp 1040 ------- 1 0.0 4.0 12 58
+ 2.630496 3 4 tcp 1040 ------- 1 0.0 4.0 12 58
- 2.630496 3 4 tcp 1040 ------- 1 0.0 4.0 12 58
r 2.635579 3 4 tcp 1040 ------- 1 0.0 4.0 12 58
+ 2.635579 4 3 ack 40 ------- 1 4.0 0.0 12 71
- 2.635579 4 3 ack 40 ------- 1 4.0 0.0 12 71
r 2.640582 4 3 ack 40 ------- 1 4.0 0.0 12 71
+ 2.640582 3 2 ack 40 ------- 1 4.0 0.0 12 71
- 2.640582 3 2 ack 40 ------- 1 4.0 0.0 12 71
r 2.644782 3 2 ack 40 ------- 1 4.0 0.0 12 71
+ 2.644782 2 0 ack 40 ------- 1 4.0 0.0 12 71
- 2.644782 2 0 ack 40 ------- 1 4.0 0.0 12 71
r 2.649786 2 0 ack 40 ------- 1 4.0 0.0 12 71
2.64979  0  0  4  0  cwnd_ 3.834 
+ 2.649786 0 2 tcp 1040 ------- 1 0.0 4.0 15 72
- 2.649786 0 2 tcp 1040 ------- 1 0.0 4.0 15 72
r 2.654869 0 2 tcp 1040 ------- 1 0.0 4.0 15 72
+ 2.654869 2 3 tcp 1040 ------- 1 0.0 4.0 15 72
- 2.712696 2 3 tcp 1040 ------- 2 1.0 5.0 10 63
r 2.713696 2 3 tcp 1040 ------- 1 0.0 4.0 13 61
+ 2.713696 3 4 tcp 1040 ------- 1 0.0 4.0 13 61
- 2.713696 3 4 tcp 1040 ------- 1 0.0 4.0 13 61
r 2.718779 3 4 tcp 1040 ------- 1 0.0 4.0 13 61
+ 2.718779 4 3 ack 40 ------- 1 4.0 0.0 13 73
- 2.718779 4 3 ack 40 ------- 1 4.0 0.0 13 73
r 2.723782 4 3 ack 40 ------- 1 4.0 0.0 13 73
+ 2.723782 3 2 ack 40 ------- 1 4.0 0.0 13 73
- 2.723782 3 2 ack 40 ------- 1 4.0 0.0 13 73
r 2.727982 3 2 ack 40 ------- 1 4.0 0.0 13 73
+ 2.727982 2 0 ack 40 ------- 1 4.0 0.0 13 73
- 2.727982 2 0 ack 40 ------- 1 4.0 0.0 13 73
r 2.732986 2 0 ack 40 ------- 1 4.0 0.0 13 73
2.73299  0  0  4  0  cwnd_ 4.095 
+ 2.732986 0 2 tcp 1040 ------- 1 0.0 4.0 16 74