+ 0.105003 2 3 tcp 40 ------- 1 0.0 4.0 0 0
- 0.105003 2 3 tcp 40 ------- 1 0.0 4.0 0 0
+ 0.105003 2 3 tcp 40 ------- 2 1.0 5.0 0 1
- 0.108203 2 3 tcp 40 ------- 2 1.0 5.0 0 1
r 0.109203 2 3 tcp 40 ------- 1 0.0 4.0 0 0
r 0.112403 2 3 tcp 40 ------- 2 1.0 5.0 0 1
+ 0.133496 2 3 tcp 1040 ------- 1 0.0 4.0 1 4
- 0.133496 2 3 tcp 1040 ------- 1 0.0 4.0 1 4
+ 0.133579 2 3 tcp 1040 ------- 1 0.0 4.0 2 5
+ 0.136696 2 3 tcp 1040 ------- 2 1.0 5.0 1 6
+ 0.136779 2 3 tcp 1040 ------- 2 1.0 5.0 2 7
- 0.216696 2 3 tcp 1040 ------- 1 0.0 4.0 2 5
r 0.217696 2 3 tcp 1040 ------- 1 0.0 4.0 1 4
+ 0.242069 2 3 tcp 1040 ------- 1 0.0 4.0 3 9
+ 0.242152 2 3 tcp 1040 ------- 1 0.0 4.0 4 10
- 0.299896 2 3 tcp 1040 ------- 2 1.0 5.0 1 6
r 0.300896 2 3 tcp 1040 ------- 1 0.0 4.0 2 5
+ 0.325269 2 3 tcp 1040 ------- 1 0.0 4.0 5 12
+ 0.325352 2 3 tcp 1040 ------- 1 0.0 4.0 6 13
+ 0.336696 2 3 tcp 1040 ---A--- 2 1.0 5.0 1 14
- 0.383096 2 3 tcp 1040 ------- 2 1.0 5.0 2 7
r 0.384096 2 3 tcp 1040 ------- 2 1.0 5.0 1 6
+ 0.408469 2 3 tcp 1040 ------- 2 1.0 5.0 2 16
+ 0.408552 2 3 tcp 1040 ------- 2 1.0 5.0 3 17
- 0.466296 2 3 tcp 1040 ------- 1 0.0 4.0 3 9
r 0.467296 2 3 tcp 1040 ------- 2 1.0 5.0 2 7
+ 0.491669 2 3 tcp 1040 ------- 2 1.0 5.0 4 19
+ 0.525269 2 3 tcp 1040 ---A--- 1 0.0 4.0 3 20
- 0.549496 2 3 tcp 1040 ------- 1 0.0 4.0 4 10
r 0.550496 2 3 tcp 1040 ------- 1 0.0 4.0 3 9
+ 0.574869 2 3 tcp 1040 ------- 1 0.0 4.0 4 22
+ 0.574952 2 3 tcp 1040 ------- 1 0.0 4.0 5 23
- 0.632696 2 3 tcp 1040 ------- 1 0.0 4.0 5 12
r 0.633696 2 3 tcp 1040 ------- 1 0.0 4.0 4 10
+ 0.658069 2 3 tcp 1040 ------- 1 0.0 4.0 6 25
- 0.715896 2 3 tcp 1040 ------- 1 0.0 4.0 6 13
r 0.716896 2 3 tcp 1040 ------- 1 0.0 4.0 5 12
+ 0.741269 2 3 tcp 1040 ------- 1 0.0 4.0 7 27
- 0.799096 2 3 tcp 1040 ---A--- 2 1.0 5.0 1 14
r 0.800096 2 3 tcp 1040 ------- 1 0.0 4.0 6 13
+ 0.824469 2 3 tcp 1040 ------- 1 0.0 4.0 8 29
+ 0.824552 2 3 tcp 1040 ------- 1 0.0 4.0 9 30
d 0.824552 2 3 tcp 1040 ------- 1 0.0 4.0 9 30
- 0.882296 2 3 tcp 1040 ------- 2 1.0 5.0 2 16
r 0.883296 2 3 tcp 1040 ---A--- 2 1.0 5.0 1 14
+ 0.891669 2 3 tcp 1040 ---A--- 2 1.0 5.0 3 31
+ 0.907669 2 3 tcp 1040 ------- 2 1.0 5.0 4 33
d 0.907669 2 3 tcp 1040 ------- 2 1.0 5.0 4 33
- 0.965496 2 3 tcp 1040 ------- 2 1.0 5.0 3 17
r 0.966496 2 3 tcp 1040 ------- 2 1.0 5.0 2 16
+ 0.990869 2 3 tcp 1040 ------- 2 1.0 5.0 5 35
- 1.048696 2 3 tcp 1040 ------- 2 1.0 5.0 4 19
r 1.049696 2 3 tcp 1040 ------- 2 1.0 5.0 3 17
- 1.131896 2 3 tcp 1040 ---A--- 1 0.0 4.0 3 20
r 1.132896 2 3 tcp 1040 ------- 2 1.0 5.0 4 19
+ 1.157269 2 3 tcp 1040 ------- 2 1.0 5.0 6 38
- 1.215096 2 3 tcp 1040 ------- 1 0.0 4.0 4 22
r 1.216096 2 3 tcp 1040 ---A--- 1 0.0 4.0 3 20
+ 1.224469 2 3 tcp 1040 ---A--- 1 0.0 4.0 7 39
+ 1.240469 2 3 tcp 1040 ------- 1 0.0 4.0 8 41
- 1.298296 2 3 tcp 1040 ------- 1 0.0 4.0 5 23
r 1.299296 2 3 tcp 1040 ------- 1 0.0 4.0 4 22
+ 1.323669 2 3 tcp 1040 ------- 1 0.0 4.0 9 43
- 1.381496 2 3 tcp 1040 ------- 1 0.0 4.0 6 25
r 1.382496 2 3 tcp 1040 ------- 1 0.0 4.0 5 23
- 1.464696 2 3 tcp 1040 ------- 1 0.0 4.0 7 27
r 1.465696 2 3 tcp 1040 ------- 1 0.0 4.0 6 25
- 1.547896 2 3 tcp 1040 ------- 1 0.0 4.0 8 29
r 1.548896 2 3 tcp 1040 ------- 1 0.0 4.0 7 27
- 1.631096 2 3 tcp 1040 ---A--- 2 1.0 5.0 3 31
r 1.632096 2 3 tcp 1040 ------- 1 0.0 4.0 8 29
+ 1.656469 2 3 tcp 1040 ------- 1 0.0 4.0 10 48
- 1.714296 2 3 tcp 1040 ------- 2 1.0 5.0 5 35
r 1.715296 2 3 tcp 1040 ---A--- 2 1.0 5.0 3 31
+ 1.739669 2 3 tcp 1040 ------- 2 1.0 5.0 7 50
- 1.797496 2 3 tcp 1040 ------- 2 1.0 5.0 6 38
r 1.798496 2 3 tcp 1040 ------- 2 1.0 5.0 5 35
- 1.880696 2 3 tcp 1040 ---A--- 1 0.0 4.0 7 39
r 1.881696 2 3 tcp 1040 ------- 2 1.0 5.0 6 38
+ 1.906069 2 3 tcp 1040 ------- 2 1.0 5.0 8 53
+ 1.906152 2 3 tcp 1040 ------- 2 1.0 5.0 9 54
- 1.963896 2 3 tcp 1040 ------- 1 0.0 4.0 8 41
r 1.964896 2 3 tcp 1040 ---A--- 1 0.0 4.0 7 39
+ 1.989269 2 3 tcp 1040 ------- 1 0.0 4.0 11 56
- 2.047096 2 3 tcp 1040 ------- 1 0.0 4.0 9 43
r 2.048096 2 3 tcp 1040 ------- 1 0.0 4.0 8 41
+ 2.072469 2 3 tcp 1040 ------- 1 0.0 4.0 12 58
- 2.130296 2 3 tcp 1040 ------- 1 0.0 4.0 10 48
r 2.131296 2 3 tcp 1040 ------- 1 0.0 4.0 9 43
- 2.213496 2 3 tcp 1040 ------- 2 1.0 5.0 7 50
r 2.214496 2 3 tcp 1040 ------- 1 0.0 4.0 10 48
+ 2.238869 2 3 tcp 1040 ------- 1 0.0 4.0 13 61
- 2.296696 2 3 tcp 1040 ------- 2 1.0 5.0 8 53
r 2.297696 2 3 tcp 1040 ------- 2 1.0 5.0 7 50
+ 2.322069 2 3 tcp 1040 ------- 2 1.0 5.0 10 63
- 2.379896 2 3 tcp 1040 ------- 2 1.0 5.0 9 54
r 2.380896 2 3 tcp 1040 ------- 2 1.0 5.0 8 53
+ 2.405269 2 3 tcp 1040 ------- 2 1.0 5.0 11 65
- 2.463096 2 3 tcp 1040 ------- 1 0.0 4.0 11 56
r 2.464096 2 3 tcp 1040 ------- 2 1.0 5.0 9 54
+ 2.488469 2 3 tcp 1040 ------- 2 1.0 5.0 12 67
+ 2.488552 2 3 tcp 1040 ------- 2 1.0 5.0 13 68
- 2.546296 2 3 tcp 1040 ------- 1 0.0 4.0 12 58
r 2.547296 2 3 tcp 1040 ------- 1 0.0 4.0 11 56
+ 2.571669 2 3 tcp 1040 ------- 1 0.0 4.0 14 70
- 2.629496 2 3 tcp 1040 ------- 1 0.0 4.0 13 61
r 2.630496 2 3 tcp 1040 ------- 1 0.0 4.0 12 58
+ 2.654869 2 3 tcp 1040 ------- 1 0.0 4.0 15 72
- 2.712696 2 3 tcp 1040 ------- 2 1.0 5.0 10 63
r 2.713696 2 3 tcp 1040 ------- 1 0.0 4.0 13 61
+ 2.738069 2 3 tcp 1040 ------- 1 0.0 4.0 16 74
+ 2.738152 2 3 tcp 1040 ------- 1 0.0 4.0 17 75
- 2.795896 2 3 tcp 1040 ------- 2 1.0 5.0 11 65
r 2.796896 2 3 tcp 1040 ------- 2 1.0 5.0 10 63
+ 2.821269 2 3 tcp 1040 ------- 2 1.0 5.0 14 77
- 2.879096 2 3 tcp 1040 ------- 2 1.0 5.0 12 67
r 2.880096 2 3 tcp 1040 ------- 2 1.0 5.0 11 65
+ 2.904469 2 3 tcp 1040 ------- 2 1.0 5.0 15 79
- 2.962296 2 3 tcp 1040 ------- 2 1.0 5.0 13 68
r 2.963296 2 3 tcp 1040 ------- 2 1.0 5.0 12 67
+ 2.987669 2 3 tcp 1040 ------- 2 1.0 5.0 16 81
- 3.045496 2 3 tcp 1040 ------- 1 0.0 4.0 14 70
r 3.046496 2 3 tcp 1040 ------- 2 1.0 5.0 13 68
+ 3.070869 2 3 tcp 1040 ------- 2 1.0 5.0 17 83
- 3.128696 2 3 tcp 1040 ------- 1 0.0 4.0 15 72
r 3.129696 2 3 tcp 1040 ------- 1 0.0 4.0 14 70
+ 3.154069 2 3 tcp 1040 ------- 1 0.0 4.0 18 85
- 3.211896 2 3 tcp 1040 ------- 1 0.0 4.0 16 74
r 3.212896 2 3 tcp 1040 ------- 1 0.0 4.0 15 72
+ 3.237269 2 3 tcp 1040 ------- 1 0.0 4.0 19 87
- 3.295096 2 3 tcp 1040 ------- 1 0.0 4.0 17 75
r 3.296096 2 3 tcp 1040 ------- 1 0.0 4.0 16 74
+ 3.320469 2 3 tcp 1040 ------- 1 0.0 4.0 20 89
- 3.378296 2 3 tcp 1040 ------- 2 1.0 5.0 14 77
r 3.379296 2 3 tcp 1040 ------- 1 0.0 4.0 17 75
+ 3.403669 2 3 tcp 1040 ------- 1 0.0 4.0 21 91
- 3.461496 2 3 tcp 1040 ------- 2 1.0 5.0 15 79
r 3.462496 2 3 tcp 1040 ------- 2 1.0 5.0 14 77
+ 3.486869 2 3 tcp 1040 ------- 2 1.0 5.0 18 93
+ 3.486952 2 3 tcp 1040 ------- 2 1.0 5.0 19 94
- 3.544696 2 3 tcp 1040 ------- 2 1.0 5.0 16 81
r 3.545696 2 3 tcp 1040 ------- 2 1.0 5.0 15 79
+ 3.570069 2 3 tcp 1040 ------- 2 1.0 5.0 20 96
- 3.627896 2 3 tcp 1040 ------- 2 1.0 5.0 17 83
r 3.628896 2 3 tcp 1040 ------- 2 1.0 5.0 16 81
+ 3.653269 2 3 tcp 1040 ------- 2 1.0 5.0 21 98
- 3.711096 2 3 tcp 1040 ------- 1 0.0 4.0 18 85
r 3.712096 2 3 tcp 1040 ------- 2 1.0 5.0 17 83
+ 3.736469 2 3 tcp 1040 ------- 2 1.0 5.0 22 100
- 3.794296 2 3 tcp 1040 ------- 1 0.0 4.0 19 87
r 3.795296 2 3 tcp 1040 ------- 1 0.0 4.0 18 85
+ 3.819669 2 3 tcp 1040 ------- 1 0.0 4.0 22 102
+ 3.819752 2 3 tcp 1040 ------- 1 0.0 4.0 23 103
- 3.877496 2 3 tcp 1040 ------- 1 0.0 4.0 20 89
r 3.878496 2 3 tcp 1040 ------- 1 0.0 4.0 19 87
+ 3.902869 2 3 tcp 1040 ------- 1 0.0 4.0 24 105
- 3.960696 2 3 tcp 1040 ------- 1 0.0 4.0 21 91
r 3.961696 2 3 tcp 1040 ------- 1 0.0 4.0 20 89
+ 3.986069 2 3 tcp 1040 ------- 1 0.0 4.0 25 107
- 4.043896 2 3 tcp 1040 ------- 2 1.0 5.0 18 93
r 4.044896 2 3 tcp 1040 ------- 1 0.0 4.0 21 91
+ 4.069269 2 3 tcp 1040 ------- 1 0.0 4.0 26 109
- 4.127096 2 3 tcp 1040 ------- 2 1.0 5.0 19 94
r 4.128096 2 3 tcp 1040 ------- 2 1.0 5.0 18 93
+ 4.152469 2 3 tcp 1040 ------- 2 1.0 5.0 23 111
- 4.210296 2 3 tcp 1040 ------- 2 1.0 5.0 20 96
r 4.211296 2 3 tcp 1040 ------- 2 1.0 5.0 19 94
+ 4.235669 2 3 tcp 1040 ------- 2 1.0 5.0 24 113
+ 4.235752 2 3 tcp 1040 ------- 2 1.0 5.0 25 114
d 4.235752 2 3 tcp 1040 ------- 2 1.0 5.0 25 114
- 4.293496 2 3 tcp 1040 ------- 2 1.0 5.0 21 98
r 4.294496 2 3 tcp 1040 ------- 2 1.0 5.0 20 96
+ 4.318869 2 3 tcp 1040 ------- 2 1.0 5.0 26 116
- 4.376696 2 3 tcp 1040 ------- 2 1.0 5.0 22 100
r 4.377696 2 3 tcp 1040 ------- 2 1.0 5.0 21 98
+ 4.402069 2 3 tcp 1040 ------- 2 1.0 5.0 27 118
- 4.459896 2 3 tcp 1040 ------- 1 0.0 4.0 22 102
r 4.460896 2 3 tcp 1040 ------- 2 1.0 5.0 22 100
+ 4.485269 2 3 tcp 1040 ------- 2 1.0 5.0 28 120
- 4.543096 2 3 tcp 1040 ------- 1 0.0 4.0 23 103
r 4.544096 2 3 tcp 1040 ------- 1 0.0 4.0 22 102
+ 4.568469 2 3 tcp 1040 ------- 1 0.0 4.0 27 122
- 4.626296 2 3 tcp 1040 ------- 1 0.0 4.0 24 105
r 4.627296 2 3 tcp 1040 ------- 1 0.0 4.0 23 103
+ 4.651669 2 3 tcp 1040 ------- 1 0.0 4.0 28 124
+ 4.651752 2 3 tcp 1040 ------- 1 0.0 4.0 29 125
d 4.651752 2 3 tcp 1040 ------- 1 0.0 4.0 29 125
- 4.709496 2 3 tcp 1040 ------- 1 0.0 4.0 25 107
r 4.710496 2 3 tcp 1040 ------- 1 0.0 4.0 24 105
+ 4.734869 2 3 tcp 1040 ------- 1 0.0 4.0 30 127
- 4.792696 2 3 tcp 1040 ------- 1 0.0 4.0 26 109
r 4.793696 2 3 tcp 1040 ------- 1 0.0 4.0 25 107
+ 4.818069 2 3 tcp 1040 ------- 1 0.0 4.0 31 129
- 4.875896 2 3 tcp 1040 ------- 2 1.0 5.0 23 111
r 4.876896 2 3 tcp 1040 ------- 1 0.0 4.0 26 109
+ 4.901269 2 3 tcp 1040 ------- 1 0.0 4.0 32 131
- 4.959096 2 3 tcp 1040 ------- 2 1.0 5.0 24 113
r 4.960096 2 3 tcp 1040 ------- 2 1.0 5.0 23 111
+ 4.984469 2 3 tcp 1040 ------- 2 1.0 5.0 29 133
