+ 0.105003 2 3 tcp 40 ------- 1 0.0 4.0 0 0
- 0.105003 2 3 tcp 40 ------- 1 0.0 4.0 0 0
r 0.109203 2 3 tcp 40 ------- 1 0.0 4.0 0 0
+ 0.122003 2 3 tcp 40 ------- 2 1.0 5.0 0 1
- 0.122003 2 3 tcp 40 ------- 2 1.0 5.0 0 1
r 0.126203 2 3 tcp 40 ------- 2 1.0 5.0 0 1
+ 0.133496 2 3 tcp 1040 ------- 1 0.0 4.0 1 3
- 0.133496 2 3 tcp 1040 ------- 1 0.0 4.0 1 3
+ 0.133579 2 3 tcp 1040 ------- 1 0.0 4.0 2 4
+ 0.198496 2 3 tcp 1040 ------- 2 1.0 5.0 1 6
+ 0.198579 2 3 tcp 1040 ------- 2 1.0 5.0 2 7
- 0.216696 2 3 tcp 1040 ------- 1 0.0 4.0 2 4
r 0.217696 2 3 tcp 1040 ------- 1 0.0 4.0 1 3
+ 0.242069 2 3 tcp 1040 ------- 1 0.0 4.0 3 9
+ 0.242152 2 3 tcp 1040 ------- 1 0.0 4.0 4 10
- 0.299896 2 3 tcp 1040 ------- 2 1.0 5.0 1 6
r 0.300896 2 3 tcp 1040 ------- 1 0.0 4.0 2 4
+ 0.325269 2 3 tcp 1040 ------- 1 0.0 4.0 5 12
+ 0.325352 2 3 tcp 1040 ------- 1 0.0 4.0 6 13
- 0.383096 2 3 tcp 1040 ------- 2 1.0 5.0 2 7
r 0.384096 2 3 tcp 1040 ------- 2 1.0 5.0 1 6
+ 0.408496 2 3 tcp 1040 ---A--- 2 1.0 5.0 1 14
+ 0.456469 2 3 tcp 1040 ------- 2 1.0 5.0 2 16
+ 0.456552 2 3 tcp 1040 ------- 2 1.0 5.0 3 17
- 0.466296 2 3 tcp 1040 ------- 1 0.0 4.0 3 9
r 0.467296 2 3 tcp 1040 ------- 2 1.0 5.0 2 7
+ 0.525269 2 3 tcp 1040 ---A--- 1 0.0 4.0 3 20
+ 0.539669 2 3 tcp 1040 ------- 2 1.0 5.0 4 19
- 0.549496 2 3 tcp 1040 ------- 1 0.0 4.0 4 10
r 0.550496 2 3 tcp 1040 ------- 1 0.0 4.0 3 9
+ 0.574869 2 3 tcp 1040 ------- 1 0.0 4.0 4 22
+ 0.574952 2 3 tcp 1040 ------- 1 0.0 4.0 5 23
- 0.632696 2 3 tcp 1040 ------- 1 0.0 4.0 5 12
r 0.633696 2 3 tcp 1040 ------- 1 0.0 4.0 4 10
+ 0.658069 2 3 tcp 1040 ------- 1 0.0 4.0 6 25
- 0.715896 2 3 tcp 1040 ------- 1 0.0 4.0 6 13
r 0.716896 2 3 tcp 1040 ------- 1 0.0 4.0 5 12
+ 0.741269 2 3 tcp 1040 ------- 1 0.0 4.0 7 27
- 0.799096 2 3 tcp 1040 ---A--- 2 1.0 5.0 1 14
r 0.800096 2 3 tcp 1040 ------- 1 0.0 4.0 6 13
+ 0.824469 2 3 tcp 1040 ------- 1 0.0 4.0 8 29
+ 0.824552 2 3 tcp 1040 ------- 1 0.0 4.0 9 30
d 0.824552 2 3 tcp 1040 ------- 1 0.0 4.0 9 30
- 0.882296 2 3 tcp 1040 ------- 2 1.0 5.0 2 16
r 0.883296 2 3 tcp 1040 ---A--- 2 1.0 5.0 1 14
+ 0.955669 2 3 tcp 1040 ------- 2 1.0 5.0 5 32
+ 0.959669 2 3 tcp 1040 ---A--- 2 1.0 5.0 3 33
d 0.959669 2 3 tcp 1040 ---A--- 2 1.0 5.0 3 33
- 0.965496 2 3 tcp 1040 ------- 2 1.0 5.0 3 17
r 0.966496 2 3 tcp 1040 ------- 2 1.0 5.0 2 16
+ 1.038869 2 3 tcp 1040 ------- 2 1.0 5.0 4 35
- 1.048696 2 3 tcp 1040 ---A--- 1 0.0 4.0 3 20
r 1.049696 2 3 tcp 1040 ------- 2 1.0 5.0 3 17
+ 1.122069 2 3 tcp 1040 ------- 2 1.0 5.0 5 37
- 1.131896 2 3 tcp 1040 ------- 2 1.0 5.0 4 19
r 1.132896 2 3 tcp 1040 ---A--- 1 0.0 4.0 3 20
+ 1.157269 2 3 tcp 1040 ------- 1 0.0 4.0 10 39
- 1.215096 2 3 tcp 1040 ------- 1 0.0 4.0 4 22
r 1.216096 2 3 tcp 1040 ------- 2 1.0 5.0 4 19
+ 1.224469 2 3 tcp 1040 ---A--- 1 0.0 4.0 7 40
+ 1.288469 2 3 tcp 1040 ------- 2 1.0 5.0 6 42
d 1.288469 2 3 tcp 1040 ------- 2 1.0 5.0 6 42
- 1.298296 2 3 tcp 1040 ------- 1 0.0 4.0 5 23
r 1.299296 2 3 tcp 1040 ------- 1 0.0 4.0 4 22
+ 1.323669 2 3 tcp 1040 ------- 1 0.0 4.0 8 44
- 1.381496 2 3 tcp 1040 ------- 1 0.0 4.0 6 25
r 1.382496 2 3 tcp 1040 ------- 1 0.0 4.0 5 23
+ 1.406869 2 3 tcp 1040 ------- 1 0.0 4.0 9 46
- 1.464696 2 3 tcp 1040 ------- 1 0.0 4.0 7 27
r 1.465696 2 3 tcp 1040 ------- 1 0.0 4.0 6 25
- 1.547896 2 3 tcp 1040 ------- 1 0.0 4.0 8 29
r 1.548896 2 3 tcp 1040 ------- 1 0.0 4.0 7 27
- 1.631096 2 3 tcp 1040 ------- 2 1.0 5.0 5 32
r 1.632096 2 3 tcp 1040 ------- 1 0.0 4.0 8 29
+ 1.656469 2 3 tcp 1040 ------- 1 0.0 4.0 10 50
- 1.714296 2 3 tcp 1040 ------- 2 1.0 5.0 4 35
r 1.715296 2 3 tcp 1040 ------- 2 1.0 5.0 5 32
+ 1.787669 2 3 tcp 1040 ------- 2 1.0 5.0 7 52
- 1.797496 2 3 tcp 1040 ------- 2 1.0 5.0 5 37
r 1.798496 2 3 tcp 1040 ------- 2 1.0 5.0 4 35
+ 1.870869 2 3 tcp 1040 ------- 2 1.0 5.0 8 54
- 1.880696 2 3 tcp 1040 ------- 1 0.0 4.0 10 39
r 1.881696 2 3 tcp 1040 ------- 2 1.0 5.0 5 37
+ 1.954069 2 3 tcp 1040 ------- 2 1.0 5.0 9 56
- 1.963896 2 3 tcp 1040 ---A--- 1 0.0 4.0 7 40
r 1.964896 2 3 tcp 1040 ------- 1 0.0 4.0 10 39
+ 1.989269 2 3 tcp 1040 ------- 1 0.0 4.0 11 58
- 2.047096 2 3 tcp 1040 ------- 1 0.0 4.0 8 44
r 2.048096 2 3 tcp 1040 ---A--- 1 0.0 4.0 7 40
+ 2.072469 2 3 tcp 1040 ------- 1 0.0 4.0 12 60
- 2.130296 2 3 tcp 1040 ------- 1 0.0 4.0 9 46
r 2.131296 2 3 tcp 1040 ------- 1 0.0 4.0 8 44
- 2.213496 2 3 tcp 1040 ------- 1 0.0 4.0 10 50
r 2.214496 2 3 tcp 1040 ------- 1 0.0 4.0 9 46
- 2.296696 2 3 tcp 1040 ------- 2 1.0 5.0 7 52
r 2.297696 2 3 tcp 1040 ------- 1 0.0 4.0 10 50
+ 2.322069 2 3 tcp 1040 ------- 1 0.0 4.0 13 64
- 2.379896 2 3 tcp 1040 ------- 2 1.0 5.0 8 54
r 2.380896 2 3 tcp 1040 ------- 2 1.0 5.0 7 52
- 2.463096 2 3 tcp 1040 ------- 2 1.0 5.0 9 56
r 2.464096 2 3 tcp 1040 ------- 2 1.0 5.0 8 54
- 2.546296 2 3 tcp 1040 ------- 1 0.0 4.0 11 58
r 2.547296 2 3 tcp 1040 ------- 2 1.0 5.0 9 56
+ 2.627669 2 3 tcp 1040 ---A--- 2 1.0 5.0 6 68
- 2.629496 2 3 tcp 1040 ------- 1 0.0 4.0 12 60
r 2.630496 2 3 tcp 1040 ------- 1 0.0 4.0 11 58
+ 2.654869 2 3 tcp 1040 ------- 1 0.0 4.0 14 70
- 2.712696 2 3 tcp 1040 ------- 1 0.0 4.0 13 64
r 2.713696 2 3 tcp 1040 ------- 1 0.0 4.0 12 60
+ 2.738069 2 3 tcp 1040 ------- 1 0.0 4.0 15 72
- 2.795896 2 3 tcp 1040 ---A--- 2 1.0 5.0 6 68
r 2.796896 2 3 tcp 1040 ------- 1 0.0 4.0 13 64
+ 2.821269 2 3 tcp 1040 ------- 1 0.0 4.0 16 74
- 2.879096 2 3 tcp 1040 ------- 1 0.0 4.0 14 70
r 2.880096 2 3 tcp 1040 ---A--- 2 1.0 5.0 6 68
+ 2.952469 2 3 tcp 1040 ------- 2 1.0 5.0 10 76
+ 2.952552 2 3 tcp 1040 ------- 2 1.0 5.0 11 77
- 2.962296 2 3 tcp 1040 ------- 1 0.0 4.0 15 72
r 2.963296 2 3 tcp 1040 ------- 1 0.0 4.0 14 70
+ 2.987669 2 3 tcp 1040 ------- 1 0.0 4.0 17 79
+ 2.987752 2 3 tcp 1040 ------- 1 0.0 4.0 18 80
- 3.045496 2 3 tcp 1040 ------- 1 0.0 4.0 16 74
r 3.046496 2 3 tcp 1040 ------- 1 0.0 4.0 15 72
+ 3.070869 2 3 tcp 1040 ------- 1 0.0 4.0 19 82
- 3.128696 2 3 tcp 1040 ------- 2 1.0 5.0 10 76
r 3.129696 2 3 tcp 1040 ------- 1 0.0 4.0 16 74
+ 3.154069 2 3 tcp 1040 ------- 1 0.0 4.0 20 84
- 3.211896 2 3 tcp 1040 ------- 2 1.0 5.0 11 77
r 3.212896 2 3 tcp 1040 ------- 2 1.0 5.0 10 76
+ 3.285269 2 3 tcp 1040 ------- 2 1.0 5.0 12 86
- 3.295096 2 3 tcp 1040 ------- 1 0.0 4.0 17 79
r 3.296096 2 3 tcp 1040 ------- 2 1.0 5.0 11 77
+ 3.368469 2 3 tcp 1040 ------- 2 1.0 5.0 13 88
- 3.378296 2 3 tcp 1040 ------- 1 0.0 4.0 18 80
r 3.379296 2 3 tcp 1040 ------- 1 0.0 4.0 17 79
+ 3.403669 2 3 tcp 1040 ------- 1 0.0 4.0 21 90
- 3.461496 2 3 tcp 1040 ------- 1 0.0 4.0 19 82
r 3.462496 2 3 tcp 1040 ------- 1 0.0 4.0 18 80
+ 3.486869 2 3 tcp 1040 ------- 1 0.0 4.0 22 92
- 3.544696 2 3 tcp 1040 ------- 1 0.0 4.0 20 84
r 3.545696 2 3 tcp 1040 ------- 1 0.0 4.0 19 82
+ 3.570069 2 3 tcp 1040 ------- 1 0.0 4.0 23 94
+ 3.570152 2 3 tcp 1040 ------- 1 0.0 4.0 24 95
- 3.627896 2 3 tcp 1040 ------- 2 1.0 5.0 12 86
r 3.628896 2 3 tcp 1040 ------- 1 0.0 4.0 20 84
+ 3.653269 2 3 tcp 1040 ------- 1 0.0 4.0 25 97
- 3.711096 2 3 tcp 1040 ------- 2 1.0 5.0 13 88
r 3.712096 2 3 tcp 1040 ------- 2 1.0 5.0 12 86
+ 3.784469 2 3 tcp 1040 ------- 2 1.0 5.0 14 99
+ 3.784552 2 3 tcp 1040 ------- 2 1.0 5.0 15 100
- 3.794296 2 3 tcp 1040 ------- 1 0.0 4.0 21 90
r 3.795296 2 3 tcp 1040 ------- 2 1.0 5.0 13 88
+ 3.867669 2 3 tcp 1040 ------- 2 1.0 5.0 16 102
- 3.877496 2 3 tcp 1040 ------- 1 0.0 4.0 22 92
r 3.878496 2 3 tcp 1040 ------- 1 0.0 4.0 21 90
+ 3.902869 2 3 tcp 1040 ------- 1 0.0 4.0 26 104
- 3.960696 2 3 tcp 1040 ------- 1 0.0 4.0 23 94
r 3.961696 2 3 tcp 1040 ------- 1 0.0 4.0 22 92
+ 3.986069 2 3 tcp 1040 ------- 1 0.0 4.0 27 106
- 4.043896 2 3 tcp 1040 ------- 1 0.0 4.0 24 95
r 4.044896 2 3 tcp 1040 ------- 1 0.0 4.0 23 94
+ 4.069269 2 3 tcp 1040 ------- 1 0.0 4.0 28 108
- 4.127096 2 3 tcp 1040 ------- 1 0.0 4.0 25 97
r 4.128096 2 3 tcp 1040 ------- 1 0.0 4.0 24 95
+ 4.152469 2 3 tcp 1040 ------- 1 0.0 4.0 29 110
+ 4.152552 2 3 tcp 1040 ------- 1 0.0 4.0 30 111
- 4.210296 2 3 tcp 1040 ------- 2 1.0 5.0 14 99
r 4.211296 2 3 tcp 1040 ------- 1 0.0 4.0 25 97
+ 4.235669 2 3 tcp 1040 ------- 1 0.0 4.0 31 113
- 4.293496 2 3 tcp 1040 ------- 2 1.0 5.0 15 100
r 4.294496 2 3 tcp 1040 ------- 2 1.0 5.0 14 99
+ 4.366869 2 3 tcp 1040 ------- 2 1.0 5.0 17 115
- 4.376696 2 3 tcp 1040 ------- 2 1.0 5.0 16 102
r 4.377696 2 3 tcp 1040 ------- 2 1.0 5.0 15 100
+ 4.450069 2 3 tcp 1040 ------- 2 1.0 5.0 18 117
+ 4.450152 2 3 tcp 1040 ------- 2 1.0 5.0 19 118
- 4.459896 2 3 tcp 1040 ------- 1 0.0 4.0 26 104
r 4.460896 2 3 tcp 1040 ------- 2 1.0 5.0 16 102
+ 4.533269 2 3 tcp 1040 ------- 2 1.0 5.0 20 120
- 4.543096 2 3 tcp 1040 ------- 1 0.0 4.0 27 106
r 4.544096 2 3 tcp 1040 ------- 1 0.0 4.0 26 104
+ 4.568469 2 3 tcp 1040 ------- 1 0.0 4.0 32 122
- 4.626296 2 3 tcp 1040 ------- 1 0.0 4.0 28 108
r 4.627296 2 3 tcp 1040 ------- 1 0.0 4.0 27 106
+ 4.651669 2 3 tcp 1040 ------- 1 0.0 4.0 33 124
- 4.709496 2 3 tcp 1040 ------- 1 0.0 4.0 29 110
r 4.710496 2 3 tcp 1040 ------- 1 0.0 4.0 28 108
+ 4.734869 2 3 tcp 1040 ------- 1 0.0 4.0 34 126
- 4.792696 2 3 tcp 1040 ------- 1 0.0 4.0 30 111
r 4.793696 2 3 tcp 1040 ------- 1 0.0 4.0 29 110
+ 4.818069 2 3 tcp 1040 ------- 1 0.0 4.0 35 128
- 4.875896 2 3 tcp 1040 ------- 1 0.0 4.0 31 113
r 4.876896 2 3 tcp 1040 ------- 1 0.0 4.0 30 111
+ 4.901269 2 3 tcp 1040 ------- 1 0.0 4.0 36 130
+ 4.901352 2 3 tcp 1040 ------- 1 0.0 4.0 37 131
d 4.901352 2 3 tcp 1040 ------- 1 0.0 4.0 37 131
- 4.959096 2 3 tcp 1040 ------- 2 1.0 5.0 17 115
r 4.960096 2 3 tcp 1040 ------- 1 0.0 4.0 31 113
+ 4.984469 2 3 tcp 1040 ------- 1 0.0 4.0 38 133
