+ 0.105003 2 3 tcp 40 ------- 1 0.0 4.0 0 0
- 0.105003 2 3 tcp 40 ------- 1 0.0 4.0 0 0
r 0.109203 2 3 tcp 40 ------- 1 0.0 4.0 0 0
+ 0.119003 2 3 tcp 40 ------- 2 1.0 5.0 0 1
- 0.119003 2 3 tcp 40 ------- 2 1.0 5.0 0 1
r 0.123203 2 3 tcp 40 ------- 2 1.0 5.0 0 1
+ 0.133496 2 3 tcp 1040 ------- 1 0.0 4.0 1 3
- 0.133496 2 3 tcp 1040 ------- 1 0.0 4.0 1 3
+ 0.133579 2 3 tcp 1040 ------- 1 0.0 4.0 2 4
+ 0.203496 2 3 tcp 1040 ------- 2 1.0 5.0 1 6
+ 0.203579 2 3 tcp 1040 ------- 2 1.0 5.0 2 7
- 0.216696 2 3 tcp 1040 ------- 1 0.0 4.0 2 4
r 0.217696 2 3 tcp 1040 ------- 1 0.0 4.0 1 3
+ 0.242069 2 3 tcp 1040 ------- 1 0.0 4.0 3 9
+ 0.242152 2 3 tcp 1040 ------- 1 0.0 4.0 4 10
- 0.299896 2 3 tcp 1040 ------- 2 1.0 5.0 1 6
r 0.300896 2 3 tcp 1040 ------- 1 0.0 4.0 2 4
+ 0.325269 2 3 tcp 1040 ------- 1 0.0 4.0 5 12
+ 0.325352 2 3 tcp 1040 ------- 1 0.0 4.0 6 13
- 0.383096 2 3 tcp 1040 ------- 2 1.0 5.0 2 7
r 0.384096 2 3 tcp 1040 ------- 2 1.0 5.0 1 6
+ 0.443496 2 3 tcp 1040 ---A--- 2 1.0 5.0 1 15
+ 0.464469 2 3 tcp 1040 ------- 2 1.0 5.0 2 16
+ 0.464552 2 3 tcp 1040 ------- 2 1.0 5.0 3 17
- 0.466296 2 3 tcp 1040 ------- 1 0.0 4.0 3 9
r 0.467296 2 3 tcp 1040 ------- 2 1.0 5.0 2 7
+ 0.525269 2 3 tcp 1040 ---A--- 1 0.0 4.0 3 19
+ 0.547669 2 3 tcp 1040 ------- 2 1.0 5.0 4 20
- 0.549496 2 3 tcp 1040 ------- 1 0.0 4.0 4 10
r 0.550496 2 3 tcp 1040 ------- 1 0.0 4.0 3 9
+ 0.574869 2 3 tcp 1040 ------- 1 0.0 4.0 4 22
+ 0.574952 2 3 tcp 1040 ------- 1 0.0 4.0 5 23
- 0.632696 2 3 tcp 1040 ------- 1 0.0 4.0 5 12
r 0.633696 2 3 tcp 1040 ------- 1 0.0 4.0 4 10
+ 0.658069 2 3 tcp 1040 ------- 1 0.0 4.0 6 25
- 0.715896 2 3 tcp 1040 ------- 1 0.0 4.0 6 13
r 0.716896 2 3 tcp 1040 ------- 1 0.0 4.0 5 12
+ 0.741269 2 3 tcp 1040 ------- 1 0.0 4.0 7 27
- 0.799096 2 3 tcp 1040 ---A--- 2 1.0 5.0 1 15
r 0.800096 2 3 tcp 1040 ------- 1 0.0 4.0 6 13
+ 0.824469 2 3 tcp 1040 ------- 1 0.0 4.0 8 29
+ 0.824552 2 3 tcp 1040 ------- 1 0.0 4.0 9 30
d 0.824552 2 3 tcp 1040 ------- 1 0.0 4.0 9 30
- 0.882296 2 3 tcp 1040 ------- 2 1.0 5.0 2 16
r 0.883296 2 3 tcp 1040 ---A--- 2 1.0 5.0 1 15
+ 0.963669 2 3 tcp 1040 ------- 2 1.0 5.0 5 32
- 0.965496 2 3 tcp 1040 ------- 2 1.0 5.0 3 17
r 0.966496 2 3 tcp 1040 ------- 2 1.0 5.0 2 16
+ 1.027669 2 3 tcp 1040 ---A--- 2 1.0 5.0 3 34
+ 1.046869 2 3 tcp 1040 ------- 2 1.0 5.0 4 35
d 1.046869 2 3 tcp 1040 ------- 2 1.0 5.0 4 35
- 1.048696 2 3 tcp 1040 ---A--- 1 0.0 4.0 3 19
r 1.049696 2 3 tcp 1040 ------- 2 1.0 5.0 3 17
+ 1.130069 2 3 tcp 1040 ------- 2 1.0 5.0 5 37
- 1.131896 2 3 tcp 1040 ------- 2 1.0 5.0 4 20
r 1.132896 2 3 tcp 1040 ---A--- 1 0.0 4.0 3 19
+ 1.157269 2 3 tcp 1040 ------- 1 0.0 4.0 10 39
- 1.215096 2 3 tcp 1040 ------- 1 0.0 4.0 4 22
r 1.216096 2 3 tcp 1040 ------- 2 1.0 5.0 4 20
+ 1.224469 2 3 tcp 1040 ---A--- 1 0.0 4.0 7 40
+ 1.296469 2 3 tcp 1040 ------- 2 1.0 5.0 6 42
d 1.296469 2 3 tcp 1040 ------- 2 1.0 5.0 6 42
- 1.298296 2 3 tcp 1040 ------- 1 0.0 4.0 5 23
r 1.299296 2 3 tcp 1040 ------- 1 0.0 4.0 4 22
+ 1.323669 2 3 tcp 1040 ------- 1 0.0 4.0 8 44
- 1.381496 2 3 tcp 1040 ------- 1 0.0 4.0 6 25
r 1.382496 2 3 tcp 1040 ------- 1 0.0 4.0 5 23
+ 1.406869 2 3 tcp 1040 ------- 1 0.0 4.0 9 46
- 1.464696 2 3 tcp 1040 ------- 1 0.0 4.0 7 27
r 1.465696 2 3 tcp 1040 ------- 1 0.0 4.0 6 25
- 1.547896 2 3 tcp 1040 ------- 1 0.0 4.0 8 29
r 1.548896 2 3 tcp 1040 ------- 1 0.0 4.0 7 27
- 1.631096 2 3 tcp 1040 ------- 2 1.0 5.0 5 32
r 1.632096 2 3 tcp 1040 ------- 1 0.0 4.0 8 29
+ 1.656469 2 3 tcp 1040 ------- 1 0.0 4.0 10 50
- 1.714296 2 3 tcp 1040 ---A--- 2 1.0 5.0 3 34
r 1.715296 2 3 tcp 1040 ------- 2 1.0 5.0 5 32
+ 1.795669 2 3 tcp 1040 ------- 2 1.0 5.0 7 52
- 1.797496 2 3 tcp 1040 ------- 2 1.0 5.0 5 37
r 1.798496 2 3 tcp 1040 ---A--- 2 1.0 5.0 3 34
+ 1.878869 2 3 tcp 1040 ------- 2 1.0 5.0 8 54
- 1.880696 2 3 tcp 1040 ------- 1 0.0 4.0 10 39
r 1.881696 2 3 tcp 1040 ------- 2 1.0 5.0 5 37
+ 1.962069 2 3 tcp 1040 ------- 2 1.0 5.0 9 56
- 1.963896 2 3 tcp 1040 ---A--- 1 0.0 4.0 7 40
r 1.964896 2 3 tcp 1040 ------- 1 0.0 4.0 10 39
+ 1.989269 2 3 tcp 1040 ------- 1 0.0 4.0 11 58
- 2.047096 2 3 tcp 1040 ------- 1 0.0 4.0 8 44
r 2.048096 2 3 tcp 1040 ---A--- 1 0.0 4.0 7 40
+ 2.072469 2 3 tcp 1040 ------- 1 0.0 4.0 12 60
- 2.130296 2 3 tcp 1040 ------- 1 0.0 4.0 9 46
r 2.131296 2 3 tcp 1040 ------- 1 0.0 4.0 8 44
- 2.213496 2 3 tcp 1040 ------- 1 0.0 4.0 10 50
r 2.214496 2 3 tcp 1040 ------- 1 0.0 4.0 9 46
- 2.296696 2 3 tcp 1040 ------- 2 1.0 5.0 7 52
r 2.297696 2 3 tcp 1040 ------- 1 0.0 4.0 10 50
+ 2.322069 2 3 tcp 1040 ------- 1 0.0 4.0 13 64
- 2.379896 2 3 tcp 1040 ------- 2 1.0 5.0 8 54
r 2.380896 2 3 tcp 1040 ------- 2 1.0 5.0 7 52
- 2.463096 2 3 tcp 1040 ------- 2 1.0 5.0 9 56
r 2.464096 2 3 tcp 1040 ------- 2 1.0 5.0 8 54
- 2.546296 2 3 tcp 1040 ------- 1 0.0 4.0 11 58
r 2.547296 2 3 tcp 1040 ------- 2 1.0 5.0 9 56
- 2.629496 2 3 tcp 1040 ------- 1 0.0 4.0 12 60
r 2.630496 2 3 tcp 1040 ------- 1 0.0 4.0 11 58
+ 2.654869 2 3 tcp 1040 ------- 1 0.0 4.0 14 69
- 2.712696 2 3 tcp 1040 ------- 1 0.0 4.0 13 64
r 2.713696 2 3 tcp 1040 ------- 1 0.0 4.0 12 60
+ 2.738069 2 3 tcp 1040 ------- 1 0.0 4.0 15 71
+ 2.755669 2 3 tcp 1040 ---A--- 2 1.0 5.0 6 72
- 2.795896 2 3 tcp 1040 ------- 1 0.0 4.0 14 69
r 2.796896 2 3 tcp 1040 ------- 1 0.0 4.0 13 64
+ 2.821269 2 3 tcp 1040 ------- 1 0.0 4.0 16 74
- 2.879096 2 3 tcp 1040 ------- 1 0.0 4.0 15 71
r 2.880096 2 3 tcp 1040 ------- 1 0.0 4.0 14 69
+ 2.904469 2 3 tcp 1040 ------- 1 0.0 4.0 17 76
+ 2.904552 2 3 tcp 1040 ------- 1 0.0 4.0 18 77
- 2.962296 2 3 tcp 1040 ---A--- 2 1.0 5.0 6 72
r 2.963296 2 3 tcp 1040 ------- 1 0.0 4.0 15 71
+ 2.987669 2 3 tcp 1040 ------- 1 0.0 4.0 19 79
- 3.045496 2 3 tcp 1040 ------- 1 0.0 4.0 16 74
r 3.046496 2 3 tcp 1040 ---A--- 2 1.0 5.0 6 72
+ 3.126869 2 3 tcp 1040 ------- 2 1.0 5.0 10 81
+ 3.126952 2 3 tcp 1040 ------- 2 1.0 5.0 11 82
- 3.128696 2 3 tcp 1040 ------- 1 0.0 4.0 17 76
r 3.129696 2 3 tcp 1040 ------- 1 0.0 4.0 16 74
+ 3.154069 2 3 tcp 1040 ------- 1 0.0 4.0 20 84
- 3.211896 2 3 tcp 1040 ------- 1 0.0 4.0 18 77
r 3.212896 2 3 tcp 1040 ------- 1 0.0 4.0 17 76
+ 3.237269 2 3 tcp 1040 ------- 1 0.0 4.0 21 86
- 3.295096 2 3 tcp 1040 ------- 1 0.0 4.0 19 79
r 3.296096 2 3 tcp 1040 ------- 1 0.0 4.0 18 77
+ 3.320469 2 3 tcp 1040 ------- 1 0.0 4.0 22 88
- 3.378296 2 3 tcp 1040 ------- 2 1.0 5.0 10 81
r 3.379296 2 3 tcp 1040 ------- 1 0.0 4.0 19 79
+ 3.403669 2 3 tcp 1040 ------- 1 0.0 4.0 23 90
+ 3.403752 2 3 tcp 1040 ------- 1 0.0 4.0 24 91
- 3.461496 2 3 tcp 1040 ------- 2 1.0 5.0 11 82
r 3.462496 2 3 tcp 1040 ------- 2 1.0 5.0 10 81
+ 3.542869 2 3 tcp 1040 ------- 2 1.0 5.0 12 93
- 3.544696 2 3 tcp 1040 ------- 1 0.0 4.0 20 84
r 3.545696 2 3 tcp 1040 ------- 2 1.0 5.0 11 82
+ 3.626069 2 3 tcp 1040 ------- 2 1.0 5.0 13 95
- 3.627896 2 3 tcp 1040 ------- 1 0.0 4.0 21 86
r 3.628896 2 3 tcp 1040 ------- 1 0.0 4.0 20 84
+ 3.653269 2 3 tcp 1040 ------- 1 0.0 4.0 25 97
- 3.711096 2 3 tcp 1040 ------- 1 0.0 4.0 22 88
r 3.712096 2 3 tcp 1040 ------- 1 0.0 4.0 21 86
+ 3.736469 2 3 tcp 1040 ------- 1 0.0 4.0 26 99
- 3.794296 2 3 tcp 1040 ------- 1 0.0 4.0 23 90
r 3.795296 2 3 tcp 1040 ------- 1 0.0 4.0 22 88
+ 3.819669 2 3 tcp 1040 ------- 1 0.0 4.0 27 101
- 3.877496 2 3 tcp 1040 ------- 1 0.0 4.0 24 91
r 3.878496 2 3 tcp 1040 ------- 1 0.0 4.0 23 90
+ 3.902869 2 3 tcp 1040 ------- 1 0.0 4.0 28 103
- 3.960696 2 3 tcp 1040 ------- 2 1.0 5.0 12 93
r 3.961696 2 3 tcp 1040 ------- 1 0.0 4.0 24 91
+ 3.986069 2 3 tcp 1040 ------- 1 0.0 4.0 29 105
+ 3.986152 2 3 tcp 1040 ------- 1 0.0 4.0 30 106
- 4.043896 2 3 tcp 1040 ------- 2 1.0 5.0 13 95
r 4.044896 2 3 tcp 1040 ------- 2 1.0 5.0 12 93
+ 4.125269 2 3 tcp 1040 ------- 2 1.0 5.0 14 108
+ 4.125352 2 3 tcp 1040 ------- 2 1.0 5.0 15 109
- 4.127096 2 3 tcp 1040 ------- 1 0.0 4.0 25 97
r 4.128096 2 3 tcp 1040 ------- 2 1.0 5.0 13 95
+ 4.208469 2 3 tcp 1040 ------- 2 1.0 5.0 16 111
- 4.210296 2 3 tcp 1040 ------- 1 0.0 4.0 26 99
r 4.211296 2 3 tcp 1040 ------- 1 0.0 4.0 25 97
+ 4.235669 2 3 tcp 1040 ------- 1 0.0 4.0 31 113
- 4.293496 2 3 tcp 1040 ------- 1 0.0 4.0 27 101
r 4.294496 2 3 tcp 1040 ------- 1 0.0 4.0 26 99
+ 4.318869 2 3 tcp 1040 ------- 1 0.0 4.0 32 115
- 4.376696 2 3 tcp 1040 ------- 1 0.0 4.0 28 103
r 4.377696 2 3 tcp 1040 ------- 1 0.0 4.0 27 101
+ 4.402069 2 3 tcp 1040 ------- 1 0.0 4.0 33 117
- 4.459896 2 3 tcp 1040 ------- 1 0.0 4.0 29 105
r 4.460896 2 3 tcp 1040 ------- 1 0.0 4.0 28 103
+ 4.485269 2 3 tcp 1040 ------- 1 0.0 4.0 34 119
- 4.543096 2 3 tcp 1040 ------- 1 0.0 4.0 30 106
r 4.544096 2 3 tcp 1040 ------- 1 0.0 4.0 29 105
+ 4.568469 2 3 tcp 1040 ------- 1 0.0 4.0 35 121
- 4.626296 2 3 tcp 1040 ------- 2 1.0 5.0 14 108
r 4.627296 2 3 tcp 1040 ------- 1 0.0 4.0 30 106
+ 4.651669 2 3 tcp 1040 ------- 1 0.0 4.0 36 123
+ 4.651752 2 3 tcp 1040 ------- 1 0.0 4.0 37 124
- 4.709496 2 3 tcp 1040 ------- 2 1.0 5.0 15 109
r 4.710496 2 3 tcp 1040 ------- 2 1.0 5.0 14 108
+ 4.790869 2 3 tcp 1040 ------- 2 1.0 5.0 17 126
- 4.792696 2 3 tcp 1040 ------- 2 1.0 5.0 16 111
r 4.793696 2 3 tcp 1040 ------- 2 1.0 5.0 15 109
+ 4.874069 2 3 tcp 1040 ------- 2 1.0 5.0 18 128
+ 4.874152 2 3 tcp 1040 ------- 2 1.0 5.0 19 129
d 4.874152 2 3 tcp 1040 ------- 2 1.0 5.0 19 129
- 4.875896 2 3 tcp 1040 ------- 1 0.0 4.0 31 113
r 4.876896 2 3 tcp 1040 ------- 2 1.0 5.0 16 111
+ 4.957269 2 3 tcp 1040 ------- 2 1.0 5.0 20 131
- 4.959096 2 3 tcp 1040 ------- 1 0.0 4.0 32 115
r 4.960096 2 3 tcp 1040 ------- 1 0.0 4.0 31 113
+ 4.984469 2 3 tcp 1040 ------- 1 0.0 4.0 38 133
- 5.042296 2 3 tcp 1040 ------- 1 0.0 4.0 33 117
r 5.043296 2 3 tcp 1040 ------- 1 0.0 4.0 32 115
+ 5.067669 2 3 tcp 1040 ------- 1 0.0 4.0 39 135
- 5.125496 2 3 tcp 1040 ------- 1 0.0 4.0 34 119
r 5.126496 2 3 tcp 1040 ------- 1 0.0 4.0 33 117
+ 5.150869 2 3 tcp 1040 ------- 1 0.0 4.0 40 137
- 5.208696 2 3 tcp 1040 ------- 1 0.0 4.0 35 121
r 5.209696 2 3 tcp 1040 ------- 1 0.0 4.0 34 119
+ 5.234069 2 3 tcp 1040 ------- 1 0.0 4.0 41 139
- 5.291896 2 3 tcp 1040 ------- 1 0.0 4.0 36 123
r 5.292896 2 3 tcp 1040 ------- 1 0.0 4.0 35 121
+ 5.317269 2 3 tcp 1040 ------- 1 0.0 4.0 42 141
- 5.375096 2 3 tcp 1040 ------- 1 0.0 4.0 37 124
r 5.376096 2 3 tcp 1040 ------- 1 0.0 4.0 36 123
+ 5.400469 2 3 tcp 1040 ------- 1 0.0 4.0 43 143
- 5.458296 2 3 tcp 1040 ------- 2 1.0 5.0 17 126
r 5.459296 2 3 tcp 1040 ------- 1 0.0 4.0 37 124
+ 5.483669 2 3 tcp 1040 ------- 1 0.0 4.0 44 145
- 5.541496 2 3 tcp 1040 ------- 2 1.0 5.0 18 128
r 5.542496 2 3 tcp 1040 ------- 2 1.0 5.0 17 126
+ 5.622869 2 3 tcp 1040 ------- 2 1.0 5.0 21 147
- 5.624696 2 3 tcp 1040 ------- 2 1.0 5.0 20 131
r 5.625696 2 3 tcp 1040 ------- 2 1.0 5.0 18 128
+ 5.706069 2 3 tcp 1040 ------- 2 1.0 5.0 22 149
- 5.707896 2 3 tcp 1040 ------- 1 0.0 4.0 38 133
r 5.708896 2 3 tcp 1040 ------- 2 1.0 5.0 20 131
+ 5.789269 2 3 tcp 1040 ------- 2 1.0 5.0 23 151
- 5.791096 2 3 tcp 1040 ------- 1 0.0 4.0 39 135
r 5.792096 2 3 tcp 1040 ------- 1 0.0 4.0 38 133
+ 5.816469 2 3 tcp 1040 ------- 1 0.0 4.0 45 153
+ 5.816552 2 3 tcp 1040 ------- 1 0.0 4.0 46 154
d 5.816552 2 3 tcp 1040 ------- 1 0.0 4.0 46 154
- 5.874296 2 3 tcp 1040 ------- 1 0.0 4.0 40 137
r 5.875296 2 3 tcp 1040 ------- 1 0.0 4.0 39 135
+ 5.899669 2 3 tcp 1040 ------- 1 0.0 4.0 47 156
- 5.957496 2 3 tcp 1040 ------- 1 0.0 4.0 41 139
r 5.958496 2 3 tcp 1040 ------- 1 0.0 4.0 40 137
+ 5.982869 2 3 tcp 1040 ------- 1 0.0 4.0 48 158
- 6.040696 2 3 tcp 1040 ------- 1 0.0 4.0 42 141
r 6.041696 2 3 tcp 1040 ------- 1 0.0 4.0 41 139
+ 6.066069 2 3 tcp 1040 ------- 1 0.0 4.0 49 160
- 6.123896 2 3 tcp 1040 ------- 1 0.0 4.0 43 143
r 6.124896 2 3 tcp 1040 ------- 1 0.0 4.0 42 141
+ 6.149269 2 3 tcp 1040 ------- 1 0.0 4.0 50 162
- 6.207096 2 3 tcp 1040 ------- 1 0.0 4.0 44 145
r 6.208096 2 3 tcp 1040 ------- 1 0.0 4.0 43 143
+ 6.232469 2 3 tcp 1040 ------- 1 0.0 4.0 51 164
- 6.290296 2 3 tcp 1040 ------- 2 1.0 5.0 21 147
r 6.291296 2 3 tcp 1040 ------- 1 0.0 4.0 44 145
+ 6.315669 2 3 tcp 1040 ------- 1 0.0 4.0 52 166
- 6.373496 2 3 tcp 1040 ------- 2 1.0 5.0 22 149
r 6.374496 2 3 tcp 1040 ------- 2 1.0 5.0 21 147
+ 6.454869 2 3 tcp 1040 ------- 2 1.0 5.0 24 168
- 6.456696 2 3 tcp 1040 ------- 2 1.0 5.0 23 151
r 6.457696 2 3 tcp 1040 ------- 2 1.0 5.0 22 149
+ 6.538069 2 3 tcp 1040 ---A--- 2 1.0 5.0 19 170
- 6.539896 2 3 tcp 1040 ------- 1 0.0 4.0 45 153
r 6.540896 2 3 tcp 1040 ------- 2 1.0 5.0 23 151
- 6.623096 2 3 tcp 1040 ------- 1 0.0 4.0 47 156
r 6.624096 2 3 tcp 1040 ------- 1 0.0 4.0 45 153
+ 6.648469 2 3 tcp 1040 ------- 1 0.0 4.0 53 173
- 6.706296 2 3 tcp 1040 ------- 1 0.0 4.0 48 158
r 6.707296 2 3 tcp 1040 ------- 1 0.0 4.0 47 156
+ 6.731669 2 3 tcp 1040 ------- 1 0.0 4.0 54 175
- 6.789496 2 3 tcp 1040 ------- 1 0.0 4.0 49 160
r 6.790496 2 3 tcp 1040 ------- 1 0.0 4.0 48 158
+ 6.814869 2 3 tcp 1040 ------- 1 0.0 4.0 55 177
- 6.872696 2 3 tcp 1040 ------- 1 0.0 4.0 50 162
r 6.873696 2 3 tcp 1040 ------- 1 0.0 4.0 49 160
+ 6.898069 2 3 tcp 1040 ---A--- 1 0.0 4.0 46 179
- 6.955896 2 3 tcp 1040 ------- 1 0.0 4.0 51 164
r 6.956896 2 3 tcp 1040 ------- 1 0.0 4.0 50 162
- 7.039096 2 3 tcp 1040 ------- 1 0.0 4.0 52 166
r 7.040096 2 3 tcp 1040 ------- 1 0.0 4.0 51 164
- 7.122296 2 3 tcp 1040 ------- 2 1.0 5.0 24 168
r 7.123296 2 3 tcp 1040 ------- 1 0.0 4.0 52 166
- 7.205496 2 3 tcp 1040 ---A--- 2 1.0 5.0 19 170
r 7.206496 2 3 tcp 1040 ------- 2 1.0 5.0 24 168
+ 7.286869 2 3 tcp 1040 ------- 2 1.0 5.0 25 184
- 7.288696 2 3 tcp 1040 ------- 1 0.0 4.0 53 173
r 7.289696 2 3 tcp 1040 ---A--- 2 1.0 5.0 19 170
+ 7.370069 2 3 tcp 1040 ------- 2 1.0 5.0 26 186
- 7.371896 2 3 tcp 1040 ------- 1 0.0 4.0 54 175
r 7.372896 2 3 tcp 1040 ------- 1 0.0 4.0 53 173
+ 7.397269 2 3 tcp 1040 ------- 1 0.0 4.0 56 188
- 7.455096 2 3 tcp 1040 ------- 1 0.0 4.0 55 177
r 7.456096 2 3 tcp 1040 ------- 1 0.0 4.0 54 175
+ 7.480469 2 3 tcp 1040 ------- 1 0.0 4.0 57 190
- 7.538296 2 3 tcp 1040 ---A--- 1 0.0 4.0 46 179
r 7.539296 2 3 tcp 1040 ------- 1 0.0 4.0 55 177
+ 7.563669 2 3 tcp 1040 ------- 1 0.0 4.0 58 192
- 7.621496 2 3 tcp 1040 ------- 2 1.0 5.0 25 184
r 7.622496 2 3 tcp 1040 ---A--- 1 0.0 4.0 46 179
+ 7.646869 2 3 tcp 1040 ------- 1 0.0 4.0 59 194
- 7.704696 2 3 tcp 1040 ------- 2 1.0 5.0 26 186
r 7.705696 2 3 tcp 1040 ------- 2 1.0 5.0 25 184
+ 7.786069 2 3 tcp 1040 ------- 2 1.0 5.0 27 196
+ 7.786152 2 3 tcp 1040 ------- 2 1.0 5.0 28 197
- 7.787896 2 3 tcp 1040 ------- 1 0.0 4.0 56 188
r 7.788896 2 3 tcp 1040 ------- 2 1.0 5.0 26 186
+ 7.869269 2 3 tcp 1040 ------- 2 1.0 5.0 29 199
- 7.871096 2 3 tcp 1040 ------- 1 0.0 4.0 57 190
r 7.872096 2 3 tcp 1040 ------- 1 0.0 4.0 56 188
+ 7.896469 2 3 tcp 1040 ------- 1 0.0 4.0 60 201
- 7.954296 2 3 tcp 1040 ------- 1 0.0 4.0 58 192
r 7.955296 2 3 tcp 1040 ------- 1 0.0 4.0 57 190
+ 7.979669 2 3 tcp 1040 ------- 1 0.0 4.0 61 203
+ 7.979752 2 3 tcp 1040 ------- 1 0.0 4.0 62 204
- 8.037496 2 3 tcp 1040 ------- 1 0.0 4.0 59 194
r 8.038496 2 3 tcp 1040 ------- 1 0.0 4.0 58 192
+ 8.062869 2 3 tcp 1040 ------- 1 0.0 4.0 63 206
- 8.120696 2 3 tcp 1040 ------- 2 1.0 5.0 27 196
r 8.121696 2 3 tcp 1040 ------- 1 0.0 4.0 59 194
+ 8.146069 2 3 tcp 1040 ------- 1 0.0 4.0 64 208
- 8.203896 2 3 tcp 1040 ------- 2 1.0 5.0 28 197
r 8.204896 2 3 tcp 1040 ------- 2 1.0 5.0 27 196
+ 8.285269 2 3 tcp 1040 ------- 2 1.0 5.0 30 210
- 8.287096 2 3 tcp 1040 ------- 2 1.0 5.0 29 199
r 8.288096 2 3 tcp 1040 ------- 2 1.0 5.0 28 197
+ 8.368469 2 3 tcp 1040 ------- 2 1.0 5.0 31 212
+ 8.368552 2 3 tcp 1040 ------- 2 1.0 5.0 32 213
- 8.370296 2 3 tcp 1040 ------- 1 0.0 4.0 60 201
r 8.371296 2 3 tcp 1040 ------- 2 1.0 5.0 29 199
+ 8.451669 2 3 tcp 1040 ------- 2 1.0 5.0 33 215
- 8.453496 2 3 tcp 1040 ------- 1 0.0 4.0 61 203
r 8.454496 2 3 tcp 1040 ------- 1 0.0 4.0 60 201
+ 8.478869 2 3 tcp 1040 ------- 1 0.0 4.0 65 217
- 8.536696 2 3 tcp 1040 ------- 1 0.0 4.0 62 204
r 8.537696 2 3 tcp 1040 ------- 1 0.0 4.0 61 203
+ 8.562069 2 3 tcp 1040 ------- 1 0.0 4.0 66 219
- 8.619896 2 3 tcp 1040 ------- 1 0.0 4.0 63 206
r 8.620896 2 3 tcp 1040 ------- 1 0.0 4.0 62 204
+ 8.645269 2 3 tcp 1040 ------- 1 0.0 4.0 67 221
+ 8.645352 2 3 tcp 1040 ------- 1 0.0 4.0 68 222
- 8.703096 2 3 tcp 1040 ------- 1 0.0 4.0 64 208
r 8.704096 2 3 tcp 1040 ------- 1 0.0 4.0 63 206
+ 8.728469 2 3 tcp 1040 ------- 1 0.0 4.0 69 224
- 8.786296 2 3 tcp 1040 ------- 2 1.0 5.0 30 210
r 8.787296 2 3 tcp 1040 ------- 1 0.0 4.0 64 208
+ 8.811669 2 3 tcp 1040 ------- 1 0.0 4.0 70 226
- 8.869496 2 3 tcp 1040 ------- 2 1.0 5.0 31 212
r 8.870496 2 3 tcp 1040 ------- 2 1.0 5.0 30 210
+ 8.950869 2 3 tcp 1040 ------- 2 1.0 5.0 34 228
- 8.952696 2 3 tcp 1040 ------- 2 1.0 5.0 32 213
r 8.953696 2 3 tcp 1040 ------- 2 1.0 5.0 31 212
+ 9.034069 2 3 tcp 1040 ------- 2 1.0 5.0 35 230
- 9.035896 2 3 tcp 1040 ------- 2 1.0 5.0 33 215
r 9.036896 2 3 tcp 1040 ------- 2 1.0 5.0 32 213
+ 9.117269 2 3 tcp 1040 ------- 2 1.0 5.0 36 232
- 9.119096 2 3 tcp 1040 ------- 1 0.0 4.0 65 217
r 9.120096 2 3 tcp 1040 ------- 2 1.0 5.0 33 215
+ 9.200469 2 3 tcp 1040 ------- 2 1.0 5.0 37 234
+ 9.200552 2 3 tcp 1040 ------- 2 1.0 5.0 38 235
d 9.200552 2 3 tcp 1040 ------- 2 1.0 5.0 38 235
- 9.202296 2 3 tcp 1040 ------- 1 0.0 4.0 66 219
r 9.203296 2 3 tcp 1040 ------- 1 0.0 4.0 65 217
+ 9.227669 2 3 tcp 1040 ------- 1 0.0 4.0 71 237
- 9.285496 2 3 tcp 1040 ------- 1 0.0 4.0 67 221
r 9.286496 2 3 tcp 1040 ------- 1 0.0 4.0 66 219
+ 9.310869 2 3 tcp 1040 ------- 1 0.0 4.0 72 239
- 9.368696 2 3 tcp 1040 ------- 1 0.0 4.0 68 222
r 9.369696 2 3 tcp 1040 ------- 1 0.0 4.0 67 221
+ 9.394069 2 3 tcp 1040 ------- 1 0.0 4.0 73 241
- 9.451896 2 3 tcp 1040 ------- 1 0.0 4.0 69 224
r 9.452896 2 3 tcp 1040 ------- 1 0.0 4.0 68 222
+ 9.477269 2 3 tcp 1040 ------- 1 0.0 4.0 74 243
- 9.535096 2 3 tcp 1040 ------- 1 0.0 4.0 70 226
r 9.536096 2 3 tcp 1040 ------- 1 0.0 4.0 69 224
+ 9.560469 2 3 tcp 1040 ------- 1 0.0 4.0 75 245
+ 9.560552 2 3 tcp 1040 ------- 1 0.0 4.0 76 246
d 9.560552 2 3 tcp 1040 ------- 1 0.0 4.0 76 246
- 9.618296 2 3 tcp 1040 ------- 2 1.0 5.0 34 228
r 9.619296 2 3 tcp 1040 ------- 1 0.0 4.0 70 226
+ 9.643669 2 3 tcp 1040 ------- 1 0.0 4.0 77 248
- 9.701496 2 3 tcp 1040 ------- 2 1.0 5.0 35 230
r 9.702496 2 3 tcp 1040 ------- 2 1.0 5.0 34 228
+ 9.782869 2 3 tcp 1040 ------- 2 1.0 5.0 39 250
- 9.784696 2 3 tcp 1040 ------- 2 1.0 5.0 36 232
r 9.785696 2 3 tcp 1040 ------- 2 1.0 5.0 35 230
+ 9.866069 2 3 tcp 1040 ------- 2 1.0 5.0 40 252
- 9.867896 2 3 tcp 1040 ------- 2 1.0 5.0 37 234
r 9.868896 2 3 tcp 1040 ------- 2 1.0 5.0 36 232
+ 9.949269 2 3 tcp 1040 ------- 2 1.0 5.0 41 254
- 9.951096 2 3 tcp 1040 ------- 1 0.0 4.0 71 237
r 9.952096 2 3 tcp 1040 ------- 2 1.0 5.0 37 234
+ 10.032469 2 3 tcp 1040 ------- 2 1.0 5.0 42 256
- 10.034296 2 3 tcp 1040 ------- 1 0.0 4.0 72 239
r 10.035296 2 3 tcp 1040 ------- 1 0.0 4.0 71 237
+ 10.059669 2 3 tcp 1040 ------- 1 0.0 4.0 78 258
- 10.117496 2 3 tcp 1040 ------- 1 0.0 4.0 73 241
r 10.118496 2 3 tcp 1040 ------- 1 0.0 4.0 72 239
+ 10.142869 2 3 tcp 1040 ------- 1 0.0 4.0 79 260
- 10.200696 2 3 tcp 1040 ------- 1 0.0 4.0 74 243
r 10.201696 2 3 tcp 1040 ------- 1 0.0 4.0 73 241
+ 10.226069 2 3 tcp 1040 ------- 1 0.0 4.0 80 262
- 10.283896 2 3 tcp 1040 ------- 1 0.0 4.0 75 245
r 10.284896 2 3 tcp 1040 ------- 1 0.0 4.0 74 243
+ 10.309269 2 3 tcp 1040 ------- 1 0.0 4.0 81 264
- 10.367096 2 3 tcp 1040 ------- 1 0.0 4.0 77 248
r 10.368096 2 3 tcp 1040 ------- 1 0.0 4.0 75 245
+ 10.392469 2 3 tcp 1040 ------- 1 0.0 4.0 82 266
- 10.450296 2 3 tcp 1040 ------- 2 1.0 5.0 39 250
r 10.451296 2 3 tcp 1040 ------- 1 0.0 4.0 77 248
+ 10.475669 2 3 tcp 1040 ------- 1 0.0 4.0 83 268
- 10.533496 2 3 tcp 1040 ------- 2 1.0 5.0 40 252
r 10.534496 2 3 tcp 1040 ------- 2 1.0 5.0 39 250
+ 10.614869 2 3 tcp 1040 ------- 2 1.0 5.0 43 270
- 10.616696 2 3 tcp 1040 ------- 2 1.0 5.0 41 254
r 10.617696 2 3 tcp 1040 ------- 2 1.0 5.0 40 252
+ 10.698069 2 3 tcp 1040 ------- 2 1.0 5.0 44 272
- 10.699896 2 3 tcp 1040 ------- 2 1.0 5.0 42 256
r 10.700896 2 3 tcp 1040 ------- 2 1.0 5.0 41 254
+ 10.781269 2 3 tcp 1040 ---A--- 2 1.0 5.0 38 274
- 10.783096 2 3 tcp 1040 ------- 1 0.0 4.0 78 258
r 10.784096 2 3 tcp 1040 ------- 2 1.0 5.0 42 256
- 10.866296 2 3 tcp 1040 ------- 1 0.0 4.0 79 260
r 10.867296 2 3 tcp 1040 ------- 1 0.0 4.0 78 258
+ 10.891669 2 3 tcp 1040 ------- 1 0.0 4.0 84 277
- 10.949496 2 3 tcp 1040 ------- 1 0.0 4.0 80 262
r 10.950496 2 3 tcp 1040 ------- 1 0.0 4.0 79 260
+ 10.974869 2 3 tcp 1040 ---A--- 1 0.0 4.0 76 279
- 11.032696 2 3 tcp 1040 ------- 1 0.0 4.0 81 264
r 11.033696 2 3 tcp 1040 ------- 1 0.0 4.0 80 262
- 11.115896 2 3 tcp 1040 ------- 1 0.0 4.0 82 266
r 11.116896 2 3 tcp 1040 ------- 1 0.0 4.0 81 264
- 11.199096 2 3 tcp 1040 ------- 1 0.0 4.0 83 268
r 11.200096 2 3 tcp 1040 ------- 1 0.0 4.0 82 266
- 11.282296 2 3 tcp 1040 ------- 2 1.0 5.0 43 270
r 11.283296 2 3 tcp 1040 ------- 1 0.0 4.0 83 268
+ 11.307669 2 3 tcp 1040 ------- 1 0.0 4.0 85 284
- 11.365496 2 3 tcp 1040 ------- 2 1.0 5.0 44 272
r 11.366496 2 3 tcp 1040 ------- 2 1.0 5.0 43 270
- 11.448696 2 3 tcp 1040 ---A--- 2 1.0 5.0 38 274
r 11.449696 2 3 tcp 1040 ------- 2 1.0 5.0 44 272
+ 11.530069 2 3 tcp 1040 ------- 2 1.0 5.0 45 287
- 11.531896 2 3 tcp 1040 ------- 1 0.0 4.0 84 277
r 11.532896 2 3 tcp 1040 ---A--- 2 1.0 5.0 38 274
+ 11.613269 2 3 tcp 1040 ------- 2 1.0 5.0 46 289
+ 11.613352 2 3 tcp 1040 ------- 2 1.0 5.0 47 290
- 11.615096 2 3 tcp 1040 ---A--- 1 0.0 4.0 76 279
r 11.616096 2 3 tcp 1040 ------- 1 0.0 4.0 84 277
+ 11.640469 2 3 tcp 1040 ------- 1 0.0 4.0 86 292
- 11.698296 2 3 tcp 1040 ------- 1 0.0 4.0 85 284
r 11.699296 2 3 tcp 1040 ---A--- 1 0.0 4.0 76 279
+ 11.723669 2 3 tcp 1040 ------- 1 0.0 4.0 87 294
+ 11.723752 2 3 tcp 1040 ------- 1 0.0 4.0 88 295
- 11.781496 2 3 tcp 1040 ------- 2 1.0 5.0 45 287
r 11.782496 2 3 tcp 1040 ------- 1 0.0 4.0 85 284
+ 11.806869 2 3 tcp 1040 ------- 1 0.0 4.0 89 297
- 11.864696 2 3 tcp 1040 ------- 2 1.0 5.0 46 289
r 11.865696 2 3 tcp 1040 ------- 2 1.0 5.0 45 287
+ 11.946069 2 3 tcp 1040 ------- 2 1.0 5.0 48 299
- 11.947896 2 3 tcp 1040 ------- 2 1.0 5.0 47 290
r 11.948896 2 3 tcp 1040 ------- 2 1.0 5.0 46 289
+ 12.029269 2 3 tcp 1040 ------- 2 1.0 5.0 49 301
- 12.031096 2 3 tcp 1040 ------- 1 0.0 4.0 86 292
r 12.032096 2 3 tcp 1040 ------- 2 1.0 5.0 47 290
+ 12.112469 2 3 tcp 1040 ------- 2 1.0 5.0 50 303
+ 12.112552 2 3 tcp 1040 ------- 2 1.0 5.0 51 304
- 12.114296 2 3 tcp 1040 ------- 1 0.0 4.0 87 294
r 12.115296 2 3 tcp 1040 ------- 1 0.0 4.0 86 292
+ 12.139669 2 3 tcp 1040 ------- 1 0.0 4.0 90 306
- 12.197496 2 3 tcp 1040 ------- 1 0.0 4.0 88 295
r 12.198496 2 3 tcp 1040 ------- 1 0.0 4.0 87 294
+ 12.222869 2 3 tcp 1040 ------- 1 0.0 4.0 91 308
- 12.280696 2 3 tcp 1040 ------- 1 0.0 4.0 89 297
r 12.281696 2 3 tcp 1040 ------- 1 0.0 4.0 88 295
+ 12.306069 2 3 tcp 1040 ------- 1 0.0 4.0 92 310
+ 12.306152 2 3 tcp 1040 ------- 1 0.0 4.0 93 311
- 12.363896 2 3 tcp 1040 ------- 2 1.0 5.0 48 299
r 12.364896 2 3 tcp 1040 ------- 1 0.0 4.0 89 297
+ 12.389269 2 3 tcp 1040 ------- 1 0.0 4.0 94 313
- 12.447096 2 3 tcp 1040 ------- 2 1.0 5.0 49 301
r 12.448096 2 3 tcp 1040 ------- 2 1.0 5.0 48 299
+ 12.528469 2 3 tcp 1040 ------- 2 1.0 5.0 52 315
- 12.530296 2 3 tcp 1040 ------- 2 1.0 5.0 50 303
r 12.531296 2 3 tcp 1040 ------- 2 1.0 5.0 49 301
+ 12.611669 2 3 tcp 1040 ------- 2 1.0 5.0 53 317
- 12.613496 2 3 tcp 1040 ------- 2 1.0 5.0 51 304
r 12.614496 2 3 tcp 1040 ------- 2 1.0 5.0 50 303
+ 12.694869 2 3 tcp 1040 ------- 2 1.0 5.0 54 319
- 12.696696 2 3 tcp 1040 ------- 1 0.0 4.0 90 306
r 12.697696 2 3 tcp 1040 ------- 2 1.0 5.0 51 304
+ 12.778069 2 3 tcp 1040 ------- 2 1.0 5.0 55 321
+ 12.778152 2 3 tcp 1040 ------- 2 1.0 5.0 56 322
- 12.779896 2 3 tcp 1040 ------- 1 0.0 4.0 91 308
r 12.780896 2 3 tcp 1040 ------- 1 0.0 4.0 90 306
+ 12.805269 2 3 tcp 1040 ------- 1 0.0 4.0 95 324
- 12.863096 2 3 tcp 1040 ------- 1 0.0 4.0 92 310
r 12.864096 2 3 tcp 1040 ------- 1 0.0 4.0 91 308
+ 12.888469 2 3 tcp 1040 ------- 1 0.0 4.0 96 326
- 12.946296 2 3 tcp 1040 ------- 1 0.0 4.0 93 311
r 12.947296 2 3 tcp 1040 ------- 1 0.0 4.0 92 310
+ 12.971669 2 3 tcp 1040 ------- 1 0.0 4.0 97 328
- 13.029496 2 3 tcp 1040 ------- 1 0.0 4.0 94 313
r 13.030496 2 3 tcp 1040 ------- 1 0.0 4.0 93 311
+ 13.054869 2 3 tcp 1040 ------- 1 0.0 4.0 98 330
+ 13.054952 2 3 tcp 1040 ------- 1 0.0 4.0 99 331
d 13.054952 2 3 tcp 1040 ------- 1 0.0 4.0 99 331
- 13.112696 2 3 tcp 1040 ------- 2 1.0 5.0 52 315
r 13.113696 2 3 tcp 1040 ------- 1 0.0 4.0 94 313
+ 13.138069 2 3 tcp 1040 ------- 1 0.0 4.0 100 333
- 13.195896 2 3 tcp 1040 ------- 2 1.0 5.0 53 317
r 13.196896 2 3 tcp 1040 ------- 2 1.0 5.0 52 315
+ 13.277269 2 3 tcp 1040 ------- 2 1.0 5.0 57 335
- 13.279096 2 3 tcp 1040 ------- 2 1.0 5.0 54 319
r 13.280096 2 3 tcp 1040 ------- 2 1.0 5.0 53 317
+ 13.360469 2 3 tcp 1040 ------- 2 1.0 5.0 58 337
- 13.362296 2 3 tcp 1040 ------- 2 1.0 5.0 55 321
r 13.363296 2 3 tcp 1040 ------- 2 1.0 5.0 54 319
+ 13.443669 2 3 tcp 1040 ------- 2 1.0 5.0 59 339
- 13.445496 2 3 tcp 1040 ------- 2 1.0 5.0 56 322
r 13.446496 2 3 tcp 1040 ------- 2 1.0 5.0 55 321
+ 13.526869 2 3 tcp 1040 ------- 2 1.0 5.0 60 341
- 13.528696 2 3 tcp 1040 ------- 1 0.0 4.0 95 324
r 13.529696 2 3 tcp 1040 ------- 2 1.0 5.0 56 322
+ 13.610069 2 3 tcp 1040 ------- 2 1.0 5.0 61 343
- 13.611896 2 3 tcp 1040 ------- 1 0.0 4.0 96 326
r 13.612896 2 3 tcp 1040 ------- 1 0.0 4.0 95 324
+ 13.637269 2 3 tcp 1040 ------- 1 0.0 4.0 101 345
- 13.695096 2 3 tcp 1040 ------- 1 0.0 4.0 97 328
r 13.696096 2 3 tcp 1040 ------- 1 0.0 4.0 96 326
+ 13.720469 2 3 tcp 1040 ------- 1 0.0 4.0 102 347
- 13.778296 2 3 tcp 1040 ------- 1 0.0 4.0 98 330
r 13.779296 2 3 tcp 1040 ------- 1 0.0 4.0 97 328
+ 13.803669 2 3 tcp 1040 ------- 1 0.0 4.0 103 349
- 13.861496 2 3 tcp 1040 ------- 1 0.0 4.0 100 333
r 13.862496 2 3 tcp 1040 ------- 1 0.0 4.0 98 330
+ 13.886869 2 3 tcp 1040 ------- 1 0.0 4.0 104 351
- 13.944696 2 3 tcp 1040 ------- 2 1.0 5.0 57 335
r 13.945696 2 3 tcp 1040 ------- 1 0.0 4.0 100 333
+ 13.970069 2 3 tcp 1040 ------- 1 0.0 4.0 105 353
- 14.027896 2 3 tcp 1040 ------- 2 1.0 5.0 58 337
r 14.028896 2 3 tcp 1040 ------- 2 1.0 5.0 57 335
+ 14.109269 2 3 tcp 1040 ------- 2 1.0 5.0 62 355
+ 14.109352 2 3 tcp 1040 ------- 2 1.0 5.0 63 356
d 14.109352 2 3 tcp 1040 ------- 2 1.0 5.0 63 356
- 14.111096 2 3 tcp 1040 ------- 2 1.0 5.0 59 339
r 14.112096 2 3 tcp 1040 ------- 2 1.0 5.0 58 337
+ 14.192469 2 3 tcp 1040 ------- 2 1.0 5.0 64 358
- 14.194296 2 3 tcp 1040 ------- 2 1.0 5.0 60 341
r 14.195296 2 3 tcp 1040 ------- 2 1.0 5.0 59 339
+ 14.275669 2 3 tcp 1040 ------- 2 1.0 5.0 65 360
- 14.277496 2 3 tcp 1040 ------- 2 1.0 5.0 61 343
r 14.278496 2 3 tcp 1040 ------- 2 1.0 5.0 60 341
+ 14.358869 2 3 tcp 1040 ------- 2 1.0 5.0 66 362
- 14.360696 2 3 tcp 1040 ------- 1 0.0 4.0 101 345
r 14.361696 2 3 tcp 1040 ------- 2 1.0 5.0 61 343
+ 14.442069 2 3 tcp 1040 ------- 2 1.0 5.0 67 364
- 14.443896 2 3 tcp 1040 ------- 1 0.0 4.0 102 347
r 14.444896 2 3 tcp 1040 ------- 1 0.0 4.0 101 345
+ 14.469269 2 3 tcp 1040 ------- 1 0.0 4.0 106 366
- 14.527096 2 3 tcp 1040 ------- 1 0.0 4.0 103 349
r 14.528096 2 3 tcp 1040 ------- 1 0.0 4.0 102 347
+ 14.552469 2 3 tcp 1040 ---A--- 1 0.0 4.0 99 368
- 14.610296 2 3 tcp 1040 ------- 1 0.0 4.0 104 351
r 14.611296 2 3 tcp 1040 ------- 1 0.0 4.0 103 349
- 14.693496 2 3 tcp 1040 ------- 1 0.0 4.0 105 353
r 14.694496 2 3 tcp 1040 ------- 1 0.0 4.0 104 351
- 14.776696 2 3 tcp 1040 ------- 2 1.0 5.0 62 355
r 14.777696 2 3 tcp 1040 ------- 1 0.0 4.0 105 353
+ 14.802069 2 3 tcp 1040 ------- 1 0.0 4.0 107 372
- 14.859896 2 3 tcp 1040 ------- 2 1.0 5.0 64 358
r 14.860896 2 3 tcp 1040 ------- 2 1.0 5.0 62 355
+ 14.941269 2 3 tcp 1040 ------- 2 1.0 5.0 68 374
- 14.943096 2 3 tcp 1040 ------- 2 1.0 5.0 65 360
r 14.944096 2 3 tcp 1040 ------- 2 1.0 5.0 64 358
+ 15.024469 2 3 tcp 1040 ------- 2 1.0 5.0 69 376
- 15.026296 2 3 tcp 1040 ------- 2 1.0 5.0 66 362
r 15.027296 2 3 tcp 1040 ------- 2 1.0 5.0 65 360
+ 15.107669 2 3 tcp 1040 ------- 2 1.0 5.0 70 378
- 15.109496 2 3 tcp 1040 ------- 2 1.0 5.0 67 364
r 15.110496 2 3 tcp 1040 ------- 2 1.0 5.0 66 362
+ 15.190869 2 3 tcp 1040 ---A--- 2 1.0 5.0 63 380
- 15.192696 2 3 tcp 1040 ------- 1 0.0 4.0 106 366
r 15.193696 2 3 tcp 1040 ------- 2 1.0 5.0 67 364
- 15.275896 2 3 tcp 1040 ---A--- 1 0.0 4.0 99 368
r 15.276896 2 3 tcp 1040 ------- 1 0.0 4.0 106 366
+ 15.301269 2 3 tcp 1040 ------- 1 0.0 4.0 108 383
- 15.359096 2 3 tcp 1040 ------- 1 0.0 4.0 107 372
r 15.360096 2 3 tcp 1040 ---A--- 1 0.0 4.0 99 368
+ 15.384469 2 3 tcp 1040 ------- 1 0.0 4.0 109 385
- 15.442296 2 3 tcp 1040 ------- 2 1.0 5.0 68 374
r 15.443296 2 3 tcp 1040 ------- 1 0.0 4.0 107 372
+ 15.467669 2 3 tcp 1040 ------- 1 0.0 4.0 110 387
- 15.525496 2 3 tcp 1040 ------- 2 1.0 5.0 69 376
r 15.526496 2 3 tcp 1040 ------- 2 1.0 5.0 68 374
- 15.608696 2 3 tcp 1040 ------- 2 1.0 5.0 70 378
r 15.609696 2 3 tcp 1040 ------- 2 1.0 5.0 69 376
+ 15.690069 2 3 tcp 1040 ------- 2 1.0 5.0 71 390
- 15.691896 2 3 tcp 1040 ---A--- 2 1.0 5.0 63 380
r 15.692896 2 3 tcp 1040 ------- 2 1.0 5.0 70 378
+ 15.773269 2 3 tcp 1040 ------- 2 1.0 5.0 72 392
- 15.775096 2 3 tcp 1040 ------- 1 0.0 4.0 108 383
r 15.776096 2 3 tcp 1040 ---A--- 2 1.0 5.0 63 380
+ 15.856469 2 3 tcp 1040 ------- 2 1.0 5.0 73 394
- 15.858296 2 3 tcp 1040 ------- 1 0.0 4.0 109 385
r 15.859296 2 3 tcp 1040 ------- 1 0.0 4.0 108 383
+ 15.883669 2 3 tcp 1040 ------- 1 0.0 4.0 111 396
+ 15.883752 2 3 tcp 1040 ------- 1 0.0 4.0 112 397
- 15.941496 2 3 tcp 1040 ------- 1 0.0 4.0 110 387
r 15.942496 2 3 tcp 1040 ------- 1 0.0 4.0 109 385
+ 15.966869 2 3 tcp 1040 ------- 1 0.0 4.0 113 399
- 16.024696 2 3 tcp 1040 ------- 2 1.0 5.0 71 390
r 16.025696 2 3 tcp 1040 ------- 1 0.0 4.0 110 387
+ 16.050069 2 3 tcp 1040 ------- 1 0.0 4.0 114 401
- 16.107896 2 3 tcp 1040 ------- 2 1.0 5.0 72 392
r 16.108896 2 3 tcp 1040 ------- 2 1.0 5.0 71 390
+ 16.189269 2 3 tcp 1040 ------- 2 1.0 5.0 74 403
+ 16.189352 2 3 tcp 1040 ------- 2 1.0 5.0 75 404
- 16.191096 2 3 tcp 1040 ------- 2 1.0 5.0 73 394
r 16.192096 2 3 tcp 1040 ------- 2 1.0 5.0 72 392
+ 16.272469 2 3 tcp 1040 ------- 2 1.0 5.0 76 406