V -t * -v 1.0a5 -a 0
A -t * -n 1 -p 0 -o 0x7fffffff -c 30 -a 1
A -t * -h 1 -m 1073741823 -s 0
c -t * -i 1 -n Blue
c -t * -i 2 -n Red
n -t * -a 4 -s 4 -S UP -v circle -c black -i black
n -t * -a 0 -s 0 -S UP -v circle -c black -i black
n -t * -a 5 -s 5 -S UP -v circle -c black -i black
n -t * -a 1 -s 1 -S UP -v circle -c black -i black
n -t * -a 2 -s 2 -S UP -v circle -c black -i black
n -t * -a 3 -s 3 -S UP -v circle -c black -i black
l -t * -s 0 -d 2 -S UP -r 100000000 -D 0.0050000000000000001 -c black -o right-down
l -t * -s 1 -d 2 -S UP -r 100000000 -D 0.021999999999999999 -c black -o right-up
l -t * -s 2 -d 3 -S UP -r 100000 -D 0.001 -c black -o right
l -t * -s 3 -d 4 -S UP -r 100000000 -D 0.0050000000000000001 -c black -o right-up
l -t * -s 3 -d 5 -S UP -r 100000000 -D 0.012 -c black -o right-down
q -t * -s 3 -d 2 -a 0.5
q -t * -s 2 -d 3 -a 0.5
+ -t 0.1 -s 0 -d 2 -p tcp -e 40 -c 1 -i 0 -a 1 -x {0.0 4.0 0 ------- null}
- -t 0.1 -s 0 -d 2 -p tcp -e 40 -c 1 -i 0 -a 1 -x {0.0 4.0 0 ------- null}
h -t 0.1 -s 0 -d 2 -p tcp -e 40 -c 1 -i 0 -a 1 -x {0.0 4.0 -1 ------- null}
+ -t 0.1 -s 1 -d 2 -p tcp -e 40 -c 2 -i 1 -a 2 -x {1.0 5.0 0 ------- null}
- -t 0.1 -s 1 -d 2 -p tcp -e 40 -c 2 -i 1 -a 2 -x {1.0 5.0 0 ------- null}
h -t 0.1 -s 1 -d 2 -p tcp -e 40 -c 2 -i 1 -a 2 -x {1.0 5.0 -1 ------- null}
r -t 0.1050032 -s 0 -d 2 -p tcp -e 40 -c 1 -i 0 -a 1 -x {0.0 4.0 0 ------- null}
+ -t 0.1050032 -s 2 -d 3 -p tcp -e 40 -c 1 -i 0 -a 1 -x {0.0 4.0 0 ------- null}
- -t 0.1050032 -s 2 -d 3 -p tcp -e 40 -c 1 -i 0 -a 1 -x {0.0 4.0 0 ------- null}
h -t 0.1050032 -s 2 -d 3 -p tcp -e 40 -c 1 -i 0 -a 1 -x {0.0 4.0 -1 ------- null}
r -t 0.1092032 -s 2 -d 3 -p tcp -e 40 -c 1 -i 0 -a 1 -x {0.0 4.0 0 ------- null}
+ -t 0.1092032 -s 3 -d 4 -p tcp -e 40 -c 1 -i 0 -a 1 -x {0.0 4.0 0 ------- null}
- -t 0.1092032 -s 3 -d 4 -p tcp -e 40 -c 1 -i 0 -a 1 -x {0.0 4.0 0 ------- null}
h -t 0.1092032 -s 3 -d 4 -p tcp -e 40 -c 1 -i 0 -a 1 -x {0.0 4.0 -1 ------- null}
r -t 0.1142064 -s 3 -d 4 -p tcp -e 40 -c 1 -i 0 -a 1 -x {0.0 4.0 0 ------- null}
+ -t 0.1142064 -s 4 -d 3 -p ack -e 40 -c 1 -i 2 -a 1 -x {4.0 0.0 0 ------- null}
- -t 0.1142064 -s 4 -d 3 -p ack -e 40 -c 1 -i 2 -a 1 -x {4.0 0.0 0 ------- null}
h -t 0.1142064 -s 4 -d 3 -p ack -e 40 -c 1 -i 2 -a 1 -x {4.0 0.0 -1 ------- null}
r -t 0.1192096 -s 4 -d 3 -p ack -e 40 -c 1 -i 2 -a 1 -x {4.0 0.0 0 ------- null}
+ -t 0.1192096 -s 3 -d 2 -p ack -e 40 -c 1 -i 2 -a 1 -x {4.0 0.0 0 ------- null}
- -t 0.1192096 -s 3 -d 2 -p ack -e 40 -c 1 -i 2 -a 1 -x {4.0 0.0 0 ------- null}
h -t 0.1192096 -s 3 -d 2 -p ack -e 40 -c 1 -i 2 -a 1 -x {4.0 0.0 -1 ------- null}
r -t 0.1220032 -s 1 -d 2 -p tcp -e 40 -c 2 -i 1 -a 2 -x {1.0 5.0 0 ------- null}
+ -t 0.1220032 -s 2 -d 3 -p tcp -e 40 -c 2 -i 1 -a 2 -x {1.0 5.0 0 ------- null}
- -t 0.1220032 -s 2 -d 3 -p tcp -e 40 -c 2 -i 1 -a 2 -x {1.0 5.0 0 ------- null}
h -t 0.1220032 -s 2 -d 3 -p tcp -e 40 -c 2 -i 1 -a 2 -x {1.0 5.0 -1 ------- null}
r -t 0.1234096 -s 3 -d 2 -p ack -e 40 -c 1 -i 2 -a 1 -x {4.0 0.0 0 ------- null}
+ -t 0.1234096 -s 2 -d 0 -p ack -e 40 -c 1 -i 2 -a 1 -x {4.0 0.0 0 ------- null}
- -t 0.1234096 -s 2 -d 0 -p ack -e 40 -c 1 -i 2 -a 1 -x {4.0 0.0 0 ------- null}
h -t 0.1234096 -s 2 -d 0 -p ack -e 40 -c 1 -i 2 -a 1 -x {4.0 0.0 -1 ------- null}
r -t 0.1262032 -s 2 -d 3 -p tcp -e 40 -c 2 -i 1 -a 2 -x {1.0 5.0 0 ------- null}
+ -t 0.1262032 -s 3 -d 5 -p tcp -e 40 -c 2 -i 1 -a 2 -x {1.0 5.0 0 ------- null}
- -t 0.1262032 -s 3 -d 5 -p tcp -e 40 -c 2 -i 1 -a 2 -x {1.0 5.0 0 ------- null}
h -t 0.1262032 -s 3 -d 5 -p tcp -e 40 -c 2 -i 1 -a 2 -x {1.0 5.0 -1 ------- null}
r -t 0.1284128 -s 2 -d 0 -p ack -e 40 -c 1 -i 2 -a 1 -x {4.0 0.0 0 ------- null}
+ -t 0.1284128 -s 0 -d 2 -p tcp -e 1040 -c 1 -i 3 -a 1 -x {0.0 4.0 1 ------- null}
- -t 0.1284128 -s 0 -d 2 -p tcp -e 1040 -c 1 -i 3 -a 1 -x {0.0 4.0 1 ------- null}
h -t 0.1284128 -s 0 -d 2 -p tcp -e 1040 -c 1 -i 3 -a 1 -x {0.0 4.0 -1 ------- null}
+ -t 0.1284128 -s 0 -d 2 -p tcp -e 1040 -c 1 -i 4 -a 1 -x {0.0 4.0 2 ------- null}
- -t 0.128496 -s 0 -d 2 -p tcp -e 1040 -c 1 -i 4 -a 1 -x {0.0 4.0 2 ------- null}
h -t 0.128496 -s 0 -d 2 -p tcp -e 1040 -c 1 -i 4 -a 1 -x {0.0 4.0 -1 ------- null}
r -t 0.133496 -s 0 -d 2 -p tcp -e 1040 -c 1 -i 3 -a 1 -x {0.0 4.0 1 ------- null}
+ -t 0.133496 -s 2 -d 3 -p tcp -e 1040 -c 1 -i 3 -a 1 -x {0.0 4.0 1 ------- null}
- -t 0.133496 -s 2 -d 3 -p tcp -e 1040 -c 1 -i 3 -a 1 -x {0.0 4.0 1 ------- null}
h -t 0.133496 -s 2 -d 3 -p tcp -e 1040 -c 1 -i 3 -a 1 -x {0.0 4.0 -1 ------- null}
r -t 0.1335792 -s 0 -d 2 -p tcp -e 1040 -c 1 -i 4 -a 1 -x {0.0 4.0 2 ------- null}
+ -t 0.1335792 -s 2 -d 3 -p tcp -e 1040 -c 1 -i 4 -a 1 -x {0.0 4.0 2 ------- null}
r -t 0.1382064 -s 3 -d 5 -p tcp -e 40 -c 2 -i 1 -a 2 -x {1.0 5.0 0 ------- null}
+ -t 0.1382064 -s 5 -d 3 -p ack -e 40 -c 2 -i 5 -a 2 -x {5.0 1.0 0 ------- null}
- -t 0.1382064 -s 5 -d 3 -p ack -e 40 -c 2 -i 5 -a 2 -x {5.0 1.0 0 ------- null}
h -t 0.1382064 -s 5 -d 3 -p ack -e 40 -c 2 -i 5 -a 2 -x {5.0 1.0 -1 ------- null}
r -t 0.1502096 -s 5 -d 3 -p ack -e 40 -c 2 -i 5 -a 2 -x {5.0 1.0 0 ------- null}
+ -t 0.1502096 -s 3 -d 2 -p ack -e 40 -c 2 -i 5 -a 2 -x {5.0 1.0 0 ------- null}
- -t 0.1502096 -s 3 -d 2 -p ack -e 40 -c 2 -i 5 -a 2 -x {5.0 1.0 0 ------- null}
h -t 0.1502096 -s 3 -d 2 -p ack -e 40 -c 2 -i 5 -a 2 -x {5.0 1.0 -1 ------- null}
r -t 0.1544096 -s 3 -d 2 -p ack -e 40 -c 2 -i 5 -a 2 -x {5.0 1.0 0 ------- null}
+ -t 0.1544096 -s 2 -d 1 -p ack -e 40 -c 2 -i 5 -a 2 -x {5.0 1.0 0 ------- null}
- -t 0.1544096 -s 2 -d 1 -p ack -e 40 -c 2 -i 5 -a 2 -x {5.0 1.0 0 ------- null}
h -t 0.1544096 -s 2 -d 1 -p ack -e 40 -c 2 -i 5 -a 2 -x {5.0 1.0 -1 ------- null}
r -t 0.1764128 -s 2 -d 1 -p ack -e 40 -c 2 -i 5 -a 2 -x {5.0 1.0 0 ------- null}
+ -t 0.1764128 -s 1 -d 2 -p tcp -e 1040 -c 2 -i 6 -a 2 -x {1.0 5.0 1 ------- null}
- -t 0.1764128 -s 1 -d 2 -p tcp -e 1040 -c 2 -i 6 -a 2 -x {1.0 5.0 1 ------- null}
h -t 0.1764128 -s 1 -d 2 -p tcp -e 1040 -c 2 -i 6 -a 2 -x {1.0 5.0 -1 ------- null}
+ -t 0.1764128 -s 1 -d 2 -p tcp -e 1040 -c 2 -i 7 -a 2 -x {1.0 5.0 2 ------- null}
- -t 0.176496 -s 1 -d 2 -p tcp -e 1040 -c 2 -i 7 -a 2 -x {1.0 5.0 2 ------- null}
h -t 0.176496 -s 1 -d 2 -p tcp -e 1040 -c 2 -i 7 -a 2 -x {1.0 5.0 -1 ------- null}
r -t 0.198496 -s 1 -d 2 -p tcp -e 1040 -c 2 -i 6 -a 2 -x {1.0 5.0 1 ------- null}
+ -t 0.198496 -s 2 -d 3 -p tcp -e 1040 -c 2 -i 6 -a 2 -x {1.0 5.0 1 ------- null}
r -t 0.1985792 -s 1 -d 2 -p tcp -e 1040 -c 2 -i 7 -a 2 -x {1.0 5.0 2 ------- null}
+ -t 0.1985792 -s 2 -d 3 -p tcp -e 1040 -c 2 -i 7 -a 2 -x {1.0 5.0 2 ------- null}
- -t 0.216696 -s 2 -d 3 -p tcp -e 1040 -c 1 -i 4 -a 1 -x {0.0 4.0 2 ------- null}
h -t 0.216696 -s 2 -d 3 -p tcp -e 1040 -c 1 -i 4 -a 1 -x {0.0 4.0 -1 ------- null}
r -t 0.217696 -s 2 -d 3 -p tcp -e 1040 -c 1 -i 3 -a 1 -x {0.0 4.0 1 ------- null}
+ -t 0.217696 -s 3 -d 4 -p tcp -e 1040 -c 1 -i 3 -a 1 -x {0.0 4.0 1 ------- null}
- -t 0.217696 -s 3 -d 4 -p tcp -e 1040 -c 1 -i 3 -a 1 -x {0.0 4.0 1 ------- null}
h -t 0.217696 -s 3 -d 4 -p tcp -e 1040 -c 1 -i 3 -a 1 -x {0.0 4.0 -1 ------- null}
r -t 0.2227792 -s 3 -d 4 -p tcp -e 1040 -c 1 -i 3 -a 1 -x {0.0 4.0 1 ------- null}
+ -t 0.2227792 -s 4 -d 3 -p ack -e 40 -c 1 -i 8 -a 1 -x {4.0 0.0 1 ------- null}
- -t 0.2227792 -s 4 -d 3 -p ack -e 40 -c 1 -i 8 -a 1 -x {4.0 0.0 1 ------- null}
h -t 0.2227792 -s 4 -d 3 -p ack -e 40 -c 1 -i 8 -a 1 -x {4.0 0.0 -1 ------- null}
r -t 0.2277824 -s 4 -d 3 -p ack -e 40 -c 1 -i 8 -a 1 -x {4.0 0.0 1 ------- null}
+ -t 0.2277824 -s 3 -d 2 -p ack -e 40 -c 1 -i 8 -a 1 -x {4.0 0.0 1 ------- null}
- -t 0.2277824 -s 3 -d 2 -p ack -e 40 -c 1 -i 8 -a 1 -x {4.0 0.0 1 ------- null}
h -t 0.2277824 -s 3 -d 2 -p ack -e 40 -c 1 -i 8 -a 1 -x {4.0 0.0 -1 ------- null}
r -t 0.2319824 -s 3 -d 2 -p ack -e 40 -c 1 -i 8 -a 1 -x {4.0 0.0 1 ------- null}
+ -t 0.2319824 -s 2 -d 0 -p ack -e 40 -c 1 -i 8 -a 1 -x {4.0 0.0 1 ------- null}
- -t 0.2319824 -s 2 -d 0 -p ack -e 40 -c 1 -i 8 -a 1 -x {4.0 0.0 1 ------- null}
h -t 0.2319824 -s 2 -d 0 -p ack -e 40 -c 1 -i 8 -a 1 -x {4.0 0.0 -1 ------- null}
r -t 0.2369856 -s 2 -d 0 -p ack -e 40 -c 1 -i 8 -a 1 -x {4.0 0.0 1 ------- null}
+ -t 0.2369856 -s 0 -d 2 -p tcp -e 1040 -c 1 -i 9 -a 1 -x {0.0 4.0 3 ------- null}
- -t 0.2369856 -s 0 -d 2 -p tcp -e 1040 -c 1 -i 9 -a 1 -x {0.0 4.0 3 ------- null}
h -t 0.2369856 -s 0 -d 2 -p tcp -e 1040 -c 1 -i 9 -a 1 -x {0.0 4.0 -1 ------- null}
+ -t 0.2369856 -s 0 -d 2 -p tcp -e 1040 -c 1 -i 10 -a 1 -x {0.0 4.0 4 ------- null}
- -t 0.2370688 -s 0 -d 2 -p tcp -e 1040 -c 1 -i 10 -a 1 -x {0.0 4.0 4 ------- null}
h -t 0.2370688 -s 0 -d 2 -p tcp -e 1040 -c 1 -i 10 -a 1 -x {0.0 4.0 -1 ------- null}
r -t 0.2420688 -s 0 -d 2 -p tcp -e 1040 -c 1 -i 9 -a 1 -x {0.0 4.0 3 ------- null}
+ -t 0.2420688 -s 2 -d 3 -p tcp -e 1040 -c 1 -i 9 -a 1 -x {0.0 4.0 3 ------- null}
r -t 0.242152 -s 0 -d 2 -p tcp -e 1040 -c 1 -i 10 -a 1 -x {0.0 4.0 4 ------- null}
+ -t 0.242152 -s 2 -d 3 -p tcp -e 1040 -c 1 -i 10 -a 1 -x {0.0 4.0 4 ------- null}
- -t 0.299896 -s 2 -d 3 -p tcp -e 1040 -c 2 -i 6 -a 2 -x {1.0 5.0 1 ------- null}
h -t 0.299896 -s 2 -d 3 -p tcp -e 1040 -c 2 -i 6 -a 2 -x {1.0 5.0 -1 ------- null}
r -t 0.300896 -s 2 -d 3 -p tcp -e 1040 -c 1 -i 4 -a 1 -x {0.0 4.0 2 ------- null}
+ -t 0.300896 -s 3 -d 4 -p tcp -e 1040 -c 1 -i 4 -a 1 -x {0.0 4.0 2 ------- null}
- -t 0.300896 -s 3 -d 4 -p tcp -e 1040 -c 1 -i 4 -a 1 -x {0.0 4.0 2 ------- null}
h -t 0.300896 -s 3 -d 4 -p tcp -e 1040 -c 1 -i 4 -a 1 -x {0.0 4.0 -1 ------- null}
r -t 0.3059792 -s 3 -d 4 -p tcp -e 1040 -c 1 -i 4 -a 1 -x {0.0 4.0 2 ------- null}
+ -t 0.3059792 -s 4 -d 3 -p ack -e 40 -c 1 -i 11 -a 1 -x {4.0 0.0 2 ------- null}
- -t 0.3059792 -s 4 -d 3 -p ack -e 40 -c 1 -i 11 -a 1 -x {4.0 0.0 2 ------- null}
h -t 0.3059792 -s 4 -d 3 -p ack -e 40 -c 1 -i 11 -a 1 -x {4.0 0.0 -1 ------- null}
r -t 0.3109824 -s 4 -d 3 -p ack -e 40 -c 1 -i 11 -a 1 -x {4.0 0.0 2 ------- null}
+ -t 0.3109824 -s 3 -d 2 -p ack -e 40 -c 1 -i 11 -a 1 -x {4.0 0.0 2 ------- null}
- -t 0.3109824 -s 3 -d 2 -p ack -e 40 -c 1 -i 11 -a 1 -x {4.0 0.0 2 ------- null}
h -t 0.3109824 -s 3 -d 2 -p ack -e 40 -c 1 -i 11 -a 1 -x {4.0 0.0 -1 ------- null}
r -t 0.3151824 -s 3 -d 2 -p ack -e 40 -c 1 -i 11 -a 1 -x {4.0 0.0 2 ------- null}
+ -t 0.3151824 -s 2 -d 0 -p ack -e 40 -c 1 -i 11 -a 1 -x {4.0 0.0 2 ------- null}
- -t 0.3151824 -s 2 -d 0 -p ack -e 40 -c 1 -i 11 -a 1 -x {4.0 0.0 2 ------- null}
h -t 0.3151824 -s 2 -d 0 -p ack -e 40 -c 1 -i 11 -a 1 -x {4.0 0.0 -1 ------- null}
r -t 0.3201856 -s 2 -d 0 -p ack -e 40 -c 1 -i 11 -a 1 -x {4.0 0.0 2 ------- null}
+ -t 0.3201856 -s 0 -d 2 -p tcp -e 1040 -c 1 -i 12 -a 1 -x {0.0 4.0 5 ------- null}
- -t 0.3201856 -s 0 -d 2 -p tcp -e 1040 -c 1 -i 12 -a 1 -x {0.0 4.0 5 ------- null}
h -t 0.3201856 -s 0 -d 2 -p tcp -e 1040 -c 1 -i 12 -a 1 -x {0.0 4.0 -1 ------- null}
+ -t 0.3201856 -s 0 -d 2 -p tcp -e 1040 -c 1 -i 13 -a 1 -x {0.0 4.0 6 ------- null}
- -t 0.3202688 -s 0 -d 2 -p tcp -e 1040 -c 1 -i 13 -a 1 -x {0.0 4.0 6 ------- null}
h -t 0.3202688 -s 0 -d 2 -p tcp -e 1040 -c 1 -i 13 -a 1 -x {0.0 4.0 -1 ------- null}
r -t 0.3252688 -s 0 -d 2 -p tcp -e 1040 -c 1 -i 12 -a 1 -x {0.0 4.0 5 ------- null}
+ -t 0.3252688 -s 2 -d 3 -p tcp -e 1040 -c 1 -i 12 -a 1 -x {0.0 4.0 5 ------- null}
r -t 0.325352 -s 0 -d 2 -p tcp -e 1040 -c 1 -i 13 -a 1 -x {0.0 4.0 6 ------- null}
+ -t 0.325352 -s 2 -d 3 -p tcp -e 1040 -c 1 -i 13 -a 1 -x {0.0 4.0 6 ------- null}
- -t 0.383096 -s 2 -d 3 -p tcp -e 1040 -c 2 -i 7 -a 2 -x {1.0 5.0 2 ------- null}
h -t 0.383096 -s 2 -d 3 -p tcp -e 1040 -c 2 -i 7 -a 2 -x {1.0 5.0 -1 ------- null}
r -t 0.384096 -s 2 -d 3 -p tcp -e 1040 -c 2 -i 6 -a 2 -x {1.0 5.0 1 ------- null}
+ -t 0.384096 -s 3 -d 5 -p tcp -e 1040 -c 2 -i 6 -a 2 -x {1.0 5.0 1 ------- null}
- -t 0.384096 -s 3 -d 5 -p tcp -e 1040 -c 2 -i 6 -a 2 -x {1.0 5.0 1 ------- null}
h -t 0.384096 -s 3 -d 5 -p tcp -e 1040 -c 2 -i 6 -a 2 -x {1.0 5.0 -1 ------- null}
+ -t 0.3864128 -s 1 -d 2 -p tcp -e 1040 -c 2 -i 14 -a 2 -x {1.0 5.0 1 ---A--- null}
- -t 0.3864128 -s 1 -d 2 -p tcp -e 1040 -c 2 -i 14 -a 2 -x {1.0 5.0 1 ---A--- null}
h -t 0.3864128 -s 1 -d 2 -p tcp -e 1040 -c 2 -i 14 -a 2 -x {1.0 5.0 -1 ---A--- null}
r -t 0.3961792 -s 3 -d 5 -p tcp -e 1040 -c 2 -i 6 -a 2 -x {1.0 5.0 1 ------- null}
+ -t 0.3961792 -s 5 -d 3 -p ack -e 40 -c 2 -i 15 -a 2 -x {5.0 1.0 1 ------- null}
- -t 0.3961792 -s 5 -d 3 -p ack -e 40 -c 2 -i 15 -a 2 -x {5.0 1.0 1 ------- null}
h -t 0.3961792 -s 5 -d 3 -p ack -e 40 -c 2 -i 15 -a 2 -x {5.0 1.0 -1 ------- null}
r -t 0.4081824 -s 5 -d 3 -p ack -e 40 -c 2 -i 15 -a 2 -x {5.0 1.0 1 ------- null}
+ -t 0.4081824 -s 3 -d 2 -p ack -e 40 -c 2 -i 15 -a 2 -x {5.0 1.0 1 ------- null}
- -t 0.4081824 -s 3 -d 2 -p ack -e 40 -c 2 -i 15 -a 2 -x {5.0 1.0 1 ------- null}
h -t 0.4081824 -s 3 -d 2 -p ack -e 40 -c 2 -i 15 -a 2 -x {5.0 1.0 -1 ------- null}
r -t 0.408496 -s 1 -d 2 -p tcp -e 1040 -c 2 -i 14 -a 2 -x {1.0 5.0 1 ---A--- null}
+ -t 0.408496 -s 2 -d 3 -p tcp -e 1040 -c 2 -i 14 -a 2 -x {1.0 5.0 1 ---A--- null}
r -t 0.4123824 -s 3 -d 2 -p ack -e 40 -c 2 -i 15 -a 2 -x {5.0 1.0 1 ------- null}
+ -t 0.4123824 -s 2 -d 1 -p ack -e 40 -c 2 -i 15 -a 2 -x {5.0 1.0 1 ------- null}
- -t 0.4123824 -s 2 -d 1 -p ack -e 40 -c 2 -i 15 -a 2 -x {5.0 1.0 1 ------- null}
h -t 0.4123824 -s 2 -d 1 -p ack -e 40 -c 2 -i 15 -a 2 -x {5.0 1.0 -1 ------- null}
r -t 0.4343856 -s 2 -d 1 -p ack -e 40 -c 2 -i 15 -a 2 -x {5.0 1.0 1 ------- null}
+ -t 0.4343856 -s 1 -d 2 -p tcp -e 1040 -c 2 -i 16 -a 2 -x {1.0 5.0 2 ------- null}
- -t 0.4343856 -s 1 -d 2 -p tcp -e 1040 -c 2 -i 16 -a 2 -x {1.0 5.0 2 ------- null}
h -t 0.4343856 -s 1 -d 2 -p tcp -e 1040 -c 2 -i 16 -a 2 -x {1.0 5.0 -1 ------- null}
+ -t 0.4343856 -s 1 -d 2 -p tcp -e 1040 -c 2 -i 17 -a 2 -x {1.0 5.0 3 ------- null}
- -t 0.4344688 -s 1 -d 2 -p tcp -e 1040 -c 2 -i 17 -a 2 -x {1.0 5.0 3 ------- null}
h -t 0.4344688 -s 1 -d 2 -p tcp -e 1040 -c 2 -i 17 -a 2 -x {1.0 5.0 -1 ------- null}
r -t 0.4564688 -s 1 -d 2 -p tcp -e 1040 -c 2 -i 16 -a 2 -x {1.0 5.0 2 ------- null}
+ -t 0.4564688 -s 2 -d 3 -p tcp -e 1040 -c 2 -i 16 -a 2 -x {1.0 5.0 2 ------- null}
r -t 0.456552 -s 1 -d 2 -p tcp -e 1040 -c 2 -i 17 -a 2 -x {1.0 5.0 3 ------- null}
+ -t 0.456552 -s 2 -d 3 -p tcp -e 1040 -c 2 -i 17 -a 2 -x {1.0 5.0 3 ------- null}
- -t 0.466296 -s 2 -d 3 -p tcp -e 1040 -c 1 -i 9 -a 1 -x {0.0 4.0 3 ------- null}
h -t 0.466296 -s 2 -d 3 -p tcp -e 1040 -c 1 -i 9 -a 1 -x {0.0 4.0 -1 ------- null}
r -t 0.467296 -s 2 -d 3 -p tcp -e 1040 -c 2 -i 7 -a 2 -x {1.0 5.0 2 ------- null}
+ -t 0.467296 -s 3 -d 5 -p tcp -e 1040 -c 2 -i 7 -a 2 -x {1.0 5.0 2 ------- null}
- -t 0.467296 -s 3 -d 5 -p tcp -e 1040 -c 2 -i 7 -a 2 -x {1.0 5.0 2 ------- null}
h -t 0.467296 -s 3 -d 5 -p tcp -e 1040 -c 2 -i 7 -a 2 -x {1.0 5.0 -1 ------- null}
r -t 0.4793792 -s 3 -d 5 -p tcp -e 1040 -c 2 -i 7 -a 2 -x {1.0 5.0 2 ------- null}
+ -t 0.4793792 -s 5 -d 3 -p ack -e 40 -c 2 -i 18 -a 2 -x {5.0 1.0 2 ------- null}
- -t 0.4793792 -s 5 -d 3 -p ack -e 40 -c 2 -i 18 -a 2 -x {5.0 1.0 2 ------- null}
h -t 0.4793792 -s 5 -d 3 -p ack -e 40 -c 2 -i 18 -a 2 -x {5.0 1.0 -1 ------- null}
r -t 0.4913824 -s 5 -d 3 -p ack -e 40 -c 2 -i 18 -a 2 -x {5.0 1.0 2 ------- null}
+ -t 0.4913824 -s 3 -d 2 -p ack -e 40 -c 2 -i 18 -a 2 -x {5.0 1.0 2 ------- null}
- -t 0.4913824 -s 3 -d 2 -p ack -e 40 -c 2 -i 18 -a 2 -x {5.0 1.0 2 ------- null}
h -t 0.4913824 -s 3 -d 2 -p ack -e 40 -c 2 -i 18 -a 2 -x {5.0 1.0 -1 ------- null}
r -t 0.4955824 -s 3 -d 2 -p ack -e 40 -c 2 -i 18 -a 2 -x {5.0 1.0 2 ------- null}
+ -t 0.4955824 -s 2 -d 1 -p ack -e 40 -c 2 -i 18 -a 2 -x {5.0 1.0 2 ------- null}
- -t 0.4955824 -s 2 -d 1 -p ack -e 40 -c 2 -i 18 -a 2 -x {5.0 1.0 2 ------- null}
h -t 0.4955824 -s 2 -d 1 -p ack -e 40 -c 2 -i 18 -a 2 -x {5.0 1.0 -1 ------- null}
r -t 0.5175856 -s 2 -d 1 -p ack -e 40 -c 2 -i 18 -a 2 -x {5.0 1.0 2 ------- null}
+ -t 0.5175856 -s 1 -d 2 -p tcp -e 1040 -c 2 -i 19 -a 2 -x {1.0 5.0 4 ------- null}
- -t 0.5175856 -s 1 -d 2 -p tcp -e 1040 -c 2 -i 19 -a 2 -x {1.0 5.0 4 ------- null}
h -t 0.5175856 -s 1 -d 2 -p tcp -e 1040 -c 2 -i 19 -a 2 -x {1.0 5.0 -1 ------- null}
+ -t 0.5201856 -s 0 -d 2 -p tcp -e 1040 -c 1 -i 20 -a 1 -x {0.0 4.0 3 ---A--- null}
- -t 0.5201856 -s 0 -d 2 -p tcp -e 1040 -c 1 -i 20 -a 1 -x {0.0 4.0 3 ---A--- null}
h -t 0.5201856 -s 0 -d 2 -p tcp -e 1040 -c 1 -i 20 -a 1 -x {0.0 4.0 -1 ---A--- null}
r -t 0.5252688 -s 0 -d 2 -p tcp -e 1040 -c 1 -i 20 -a 1 -x {0.0 4.0 3 ---A--- null}
+ -t 0.5252688 -s 2 -d 3 -p tcp -e 1040 -c 1 -i 20 -a 1 -x {0.0 4.0 3 ---A--- null}
r -t 0.5396688 -s 1 -d 2 -p tcp -e 1040 -c 2 -i 19 -a 2 -x {1.0 5.0 4 ------- null}
+ -t 0.5396688 -s 2 -d 3 -p tcp -e 1040 -c 2 -i 19 -a 2 -x {1.0 5.0 4 ------- null}
- -t 0.549496 -s 2 -d 3 -p tcp -e 1040 -c 1 -i 10 -a 1 -x {0.0 4.0 4 ------- null}
h -t 0.549496 -s 2 -d 3 -p tcp -e 1040 -c 1 -i 10 -a 1 -x {0.0 4.0 -1 ------- null}
r -t 0.550496 -s 2 -d 3 -p tcp -e 1040 -c 1 -i 9 -a 1 -x {0.0 4.0 3 ------- null}
+ -t 0.550496 -s 3 -d 4 -p tcp -e 1040 -c 1 -i 9 -a 1 -x {0.0 4.0 3 ------- null}
- -t 0.550496 -s 3 -d 4 -p tcp -e 1040 -c 1 -i 9 -a 1 -x {0.0 4.0 3 ------- null}
h -t 0.550496 -s 3 -d 4 -p tcp -e 1040 -c 1 -i 9 -a 1 -x {0.0 4.0 -1 ------- null}
r -t 0.5555792 -s 3 -d 4 -p tcp -e 1040 -c 1 -i 9 -a 1 -x {0.0 4.0 3 ------- null}
+ -t 0.5555792 -s 4 -d 3 -p ack -e 40 -c 1 -i 21 -a 1 -x {4.0 0.0 3 ------- null}
- -t 0.5555792 -s 4 -d 3 -p ack -e 40 -c 1 -i 21 -a 1 -x {4.0 0.0 3 ------- null}
h -t 0.5555792 -s 4 -d 3 -p ack -e 40 -c 1 -i 21 -a 1 -x {4.0 0.0 -1 ------- null}
r -t 0.5605824 -s 4 -d 3 -p ack -e 40 -c 1 -i 21 -a 1 -x {4.0 0.0 3 ------- null}
+ -t 0.5605824 -s 3 -d 2 -p ack -e 40 -c 1 -i 21 -a 1 -x {4.0 0.0 3 ------- null}
- -t 0.5605824 -s 3 -d 2 -p ack -e 40 -c 1 -i 21 -a 1 -x {4.0 0.0 3 ------- null}
h -t 0.5605824 -s 3 -d 2 -p ack -e 40 -c 1 -i 21 -a 1 -x {4.0 0.0 -1 ------- null}
r -t 0.5647824 -s 3 -d 2 -p ack -e 40 -c 1 -i 21 -a 1 -x {4.0 0.0 3 ------- null}
+ -t 0.5647824 -s 2 -d 0 -p ack -e 40 -c 1 -i 21 -a 1 -x {4.0 0.0 3 ------- null}
- -t 0.5647824 -s 2 -d 0 -p ack -e 40 -c 1 -i 21 -a 1 -x {4.0 0.0 3 ------- null}
h -t 0.5647824 -s 2 -d 0 -p ack -e 40 -c 1 -i 21 -a 1 -x {4.0 0.0 -1 ------- null}
r -t 0.5697856 -s 2 -d 0 -p ack -e 40 -c 1 -i 21 -a 1 -x {4.0 0.0 3 ------- null}
+ -t 0.5697856 -s 0 -d 2 -p tcp -e 1040 -c 1 -i 22 -a 1 -x {0.0 4.0 4 ------- null}
- -t 0.5697856 -s 0 -d 2 -p tcp -e 1040 -c 1 -i 22 -a 1 -x {0.0 4.0 4 ------- null}
h -t 0.5697856 -s 0 -d 2 -p tcp -e 1040 -c 1 -i 22 -a 1 -x {0.0 4.0 -1 ------- null}
+ -t 0.5697856 -s 0 -d 2 -p tcp -e 1040 -c 1 -i 23 -a 1 -x {0.0 4.0 5 ------- null}
- -t 0.5698688 -s 0 -d 2 -p tcp -e 1040 -c 1 -i 23 -a 1 -x {0.0 4.0 5 ------- null}
h -t 0.5698688 -s 0 -d 2 -p tcp -e 1040 -c 1 -i 23 -a 1 -x {0.0 4.0 -1 ------- null}
r -t 0.5748688 -s 0 -d 2 -p tcp -e 1040 -c 1 -i 22 -a 1 -x {0.0 4.0 4 ------- null}
+ -t 0.5748688 -s 2 -d 3 -p tcp -e 1040 -c 1 -i 22 -a 1 -x {0.0 4.0 4 ------- null}
r -t 0.574952 -s 0 -d 2 -p tcp -e 1040 -c 1 -i 23 -a 1 -x {0.0 4.0 5 ------- null}
+ -t 0.574952 -s 2 -d 3 -p tcp -e 1040 -c 1 -i 23 -a 1 -x {0.0 4.0 5 ------- null}
- -t 0.632696 -s 2 -d 3 -p tcp -e 1040 -c 1 -i 12 -a 1 -x {0.0 4.0 5 ------- null}
h -t 0.632696 -s 2 -d 3 -p tcp -e 1040 -c 1 -i 12 -a 1 -x {0.0 4.0 -1 ------- null}
r -t 0.633696 -s 2 -d 3 -p tcp -e 1040 -c 1 -i 10 -a 1 -x {0.0 4.0 4 ------- null}
+ -t 0.633696 -s 3 -d 4 -p tcp -e 1040 -c 1 -i 10 -a 1 -x {0.0 4.0 4 ------- null}
- -t 0.633696 -s 3 -d 4 -p tcp -e 1040 -c 1 -i 10 -a 1 -x {0.0 4.0 4 ------- null}
h -t 0.633696 -s 3 -d 4 -p tcp -e 1040 -c 1 -i 10 -a 1 -x {0.0 4.0 -1 ------- null}
r -t 0.6387792 -s 3 -d 4 -p tcp -e 1040 -c 1 -i 10 -a 1 -x {0.0 4.0 4 ------- null}
+ -t 0.6387792 -s 4 -d 3 -p ack -e 40 -c 1 -i 24 -a 1 -x {4.0 0.0 4 ------- null}
- -t 0.6387792 -s 4 -d 3 -p ack -e 40 -c 1 -i 24 -a 1 -x {4.0 0.0 4 ------- null}
h -t 0.6387792 -s 4 -d 3 -p ack -e 40 -c 1 -i 24 -a 1 -x {4.0 0.0 -1 ------- null}
r -t 0.6437824 -s 4 -d 3 -p ack -e 40 -c 1 -i 24 -a 1 -x {4.0 0.0 4 ------- null}
+ -t 0.6437824 -s 3 -d 2 -p ack -e 40 -c 1 -i 24 -a 1 -x {4.0 0.0 4 ------- null}
- -t 0.6437824 -s 3 -d 2 -p ack -e 40 -c 1 -i 24 -a 1 -x {4.0 0.0 4 ------- null}
h -t 0.6437824 -s 3 -d 2 -p ack -e 40 -c 1 -i 24 -a 1 -x {4.0 0.0 -1 ------- null}
r -t 0.6479824 -s 3 -d 2 -p ack -e 40 -c 1 -i 24 -a 1 -x {4.0 0.0 4 ------- null}
+ -t 0.6479824 -s 2 -d 0 -p ack -e 40 -c 1 -i 24 -a 1 -x {4.0 0.0 4 ------- null}
- -t 0.6479824 -s 2 -d 0 -p ack -e 40 -c 1 -i 24 -a 1 -x {4.0 0.0 4 ------- null}
h -t 0.6479824 -s 2 -d 0 -p ack -e 40 -c 1 -i 24 -a 1 -x {4.0 0.0 -1 ------- null}
r -t 0.6529856 -s 2 -d 0 -p ack -e 40 -c 1 -i 24 -a 1 -x {4.0 0.0 4 ------- null}
+ -t 0.6529856 -s 0 -d 2 -p tcp -e 1040 -c 1 -i 25 -a 1 -x {0.0 4.0 6 ------- null}
- -t 0.6529856 -s 0 -d 2 -p tcp -e 1040 -c 1 -i 25 -a 1 -x {0.0 4.0 6 ------- null}
h -t 0.6529856 -s 0 -d 2 -p tcp -e 1040 -c 1 -i 25 -a 1 -x {0.0 4.0 -1 ------- null}
r -t 0.6580688 -s 0 -d 2 -p tcp -e 1040 -c 1 -i 25 -a 1 -x {0.0 4.0 6 ------- null}
+ -t 0.6580688 -s 2 -d 3 -p tcp -e 1040 -c 1 -i 25 -a 1 -x {0.0 4.0 6 ------- null}
- -t 0.715896 -s 2 -d 3 -p tcp -e 1040 -c 1 -i 13 -a 1 -x {0.0 4.0 6 ------- null}
h -t 0.715896 -s 2 -d 3 -p tcp -e 1040 -c 1 -i 13 -a 1 -x {0.0 4.0 -1 ------- null}
r -t 0.716896 -s 2 -d 3 -p tcp -e 1040 -c 1 -i 12 -a 1 -x {0.0 4.0 5 ------- null}
+ -t 0.716896 -s 3 -d 4 -p tcp -e 1040 -c 1 -i 12 -a 1 -x {0.0 4.0 5 ------- null}
- -t 0.716896 -s 3 -d 4 -p tcp -e 1040 -c 1 -i 12 -a 1 -x {0.0 4.0 5 ------- null}
h -t 0.716896 -s 3 -d 4 -p tcp -e 1040 -c 1 -i 12 -a 1 -x {0.0 4.0 -1 ------- null}
r -t 0.7219792 -s 3 -d 4 -p tcp -e 1040 -c 1 -i 12 -a 1 -x {0.0 4.0 5 ------- null}
+ -t 0.7219792 -s 4 -d 3 -p ack -e 40 -c 1 -i 26 -a 1 -x {4.0 0.0 5 ------- null}
- -t 0.7219792 -s 4 -d 3 -p ack -e 40 -c 1 -i 26 -a 1 -x {4.0 0.0 5 ------- null}
h -t 0.7219792 -s 4 -d 3 -p ack -e 40 -c 1 -i 26 -a 1 -x {4.0 0.0 -1 ------- null}
r -t 0.7269824 -s 4 -d 3 -p ack -e 40 -c 1 -i 26 -a 1 -x {4.0 0.0 5 ------- null}
+ -t 0.7269824 -s 3 -d 2 -p ack -e 40 -c 1 -i 26 -a 1 -x {4.0 0.0 5 ------- null}
- -t 0.7269824 -s 3 -d 2 -p ack -e 40 -c 1 -i 26 -a 1 -x {4.0 0.0 5 ------- null}
h -t 0.7269824 -s 3 -d 2 -p ack -e 40 -c 1 -i 26 -a 1 -x {4.0 0.0 -1 ------- null}
r -t 0.7311824 -s 3 -d 2 -p ack -e 40 -c 1 -i 26 -a 1 -x {4.0 0.0 5 ------- null}
+ -t 0.7311824 -s 2 -d 0 -p ack -e 40 -c 1 -i 26 -a 1 -x {4.0 0.0 5 ------- null}
- -t 0.7311824 -s 2 -d 0 -p ack -e 40 -c 1 -i 26 -a 1 -x {4.0 0.0 5 ------- null}
h -t 0.7311824 -s 2 -d 0 -p ack -e 40 -c 1 -i 26 -a 1 -x {4.0 0.0 -1 ------- null}
r -t 0.7361856 -s 2 -d 0 -p ack -e 40 -c 1 -i 26 -a 1 -x {4.0 0.0 5 ------- null}
+ -t 0.7361856 -s 0 -d 2 -p tcp -e 1040 -c 1 -i 27 -a 1 -x {0.0 4.0 7 ------- null}
- -t 0.7361856 -s 0 -d 2 -p tcp -e 1040 -c 1 -i 27 -a 1 -x {0.0 4.0 7 ------- null}
h -t 0.7361856 -s 0 -d 2 -p tcp -e 1040 -c 1 -i 27 -a 1 -x {0.0 4.0 -1 ------- null}
r -t 0.7412688 -s 0 -d 2 -p tcp -e 1040 -c 1 -i 27 -a 1 -x {0.0 4.0 7 ------- null}
+ -t 0.7412688 -s 2 -d 3 -p tcp -e 1040 -c 1 -i 27 -a 1 -x {0.0 4.0 7 ------- null}
- -t 0.799096 -s 2 -d 3 -p tcp -e 1040 -c 2 -i 14 -a 2 -x {1.0 5.0 1 ---A--- null}
h -t 0.799096 -s 2 -d 3 -p tcp -e 1040 -c 2 -i 14 -a 2 -x {1.0 5.0 -1 ---A--- null}
r -t 0.800096 -s 2 -d 3 -p tcp -e 1040 -c 1 -i 13 -a 1 -x {0.0 4.0 6 ------- null}
+ -t 0.800096 -s 3 -d 4 -p tcp -e 1040 -c 1 -i 13 -a 1 -x {0.0 4.0 6 ------- null}
- -t 0.800096 -s 3 -d 4 -p tcp -e 1040 -c 1 -i 13 -a 1 -x {0.0 4.0 6 ------- null}
h -t 0.800096 -s 3 -d 4 -p tcp -e 1040 -c 1 -i 13 -a 1 -x {0.0 4.0 -1 ------- null}
r -t 0.8051792 -s 3 -d 4 -p tcp -e 1040 -c 1 -i 13 -a 1 -x {0.0 4.0 6 ------- null}
+ -t 0.8051792 -s 4 -d 3 -p ack -e 40 -c 1 -i 28 -a 1 -x {4.0 0.0 6 ------- null}
- -t 0.8051792 -s 4 -d 3 -p ack -e 40 -c 1 -i 28 -a 1 -x {4.0 0.0 6 ------- null}
h -t 0.8051792 -s 4 -d 3 -p ack -e 40 -c 1 -i 28 -a 1 -x {4.0 0.0 -1 ------- null}
r -t 0.8101824 -s 4 -d 3 -p ack -e 40 -c 1 -i 28 -a 1 -x {4.0 0.0 6 ------- null}
+ -t 0.8101824 -s 3 -d 2 -p ack -e 40 -c 1 -i 28 -a 1 -x {4.0 0.0 6 ------- null}
- -t 0.8101824 -s 3 -d 2 -p ack -e 40 -c 1 -i 28 -a 1 -x {4.0 0.0 6 ------- null}
h -t 0.8101824 -s 3 -d 2 -p ack -e 40 -c 1 -i 28 -a 1 -x {4.0 0.0 -1 ------- null}
r -t 0.8143824 -s 3 -d 2 -p ack -e 40 -c 1 -i 28 -a 1 -x {4.0 0.0 6 ------- null}
+ -t 0.8143824 -s 2 -d 0 -p ack -e 40 -c 1 -i 28 -a 1 -x {4.0 0.0 6 ------- null}
- -t 0.8143824 -s 2 -d 0 -p ack -e 40 -c 1 -i 28 -a 1 -x {4.0 0.0 6 ------- null}
h -t 0.8143824 -s 2 -d 0 -p ack -e 40 -c 1 -i 28 -a 1 -x {4.0 0.0 -1 ------- null}
r -t 0.8193856 -s 2 -d 0 -p ack -e 40 -c 1 -i 28 -a 1 -x {4.0 0.0 6 ------- null}
+ -t 0.8193856 -s 0 -d 2 -p tcp -e 1040 -c 1 -i 29 -a 1 -x {0.0 4.0 8 ------- null}
- -t 0.8193856 -s 0 -d 2 -p tcp -e 1040 -c 1 -i 29 -a 1 -x {0.0 4.0 8 ------- null}
h -t 0.8193856 -s 0 -d 2 -p tcp -e 1040 -c 1 -i 29 -a 1 -x {0.0 4.0 -1 ------- null}
+ -t 0.8193856 -s 0 -d 2 -p tcp -e 1040 -c 1 -i 30 -a 1 -x {0.0 4.0 9 ------- null}
- -t 0.8194688 -s 0 -d 2 -p tcp -e 1040 -c 1 -i 30 -a 1 -x {0.0 4.0 9 ------- null}
h -t 0.8194688 -s 0 -d 2 -p tcp -e 1040 -c 1 -i 30 -a 1 -x {0.0 4.0 -1 ------- null}
r -t 0.8244688 -s 0 -d 2 -p tcp -e 1040 -c 1 -i 29 -a 1 -x {0.0 4.0 8 ------- null}
+ -t 0.8244688 -s 2 -d 3 -p tcp -e 1040 -c 1 -i 29 -a 1 -x {0.0 4.0 8 ------- null}
r -t 0.824552 -s 0 -d 2 -p tcp -e 1040 -c 1 -i 30 -a 1 -x {0.0 4.0 9 ------- null}
+ -t 0.824552 -s 2 -d 3 -p tcp -e 1040 -c 1 -i 30 -a 1 -x {0.0 4.0 9 ------- null}
d -t 0.824552 -s 2 -d 3 -p tcp -e 1040 -c 1 -i 30 -a 1 -x {0.0 4.0 9 ------- null}
- -t 0.882296 -s 2 -d 3 -p tcp -e 1040 -c 2 -i 16 -a 2 -x {1.0 5.0 2 ------- null}
h -t 0.882296 -s 2 -d 3 -p tcp -e 1040 -c 2 -i 16 -a 2 -x {1.0 5.0 -1 ------- null}
r -t 0.883296 -s 2 -d 3 -p tcp -e 1040 -c 2 -i 14 -a 2 -x {1.0 5.0 1 ---A--- null}
+ -t 0.883296 -s 3 -d 5 -p tcp -e 1040 -c 2 -i 14 -a 2 -x {1.0 5.0 1 ---A--- null}
- -t 0.883296 -s 3 -d 5 -p tcp -e 1040 -c 2 -i 14 -a 2 -x {1.0 5.0 1 ---A--- null}
h -t 0.883296 -s 3 -d 5 -p tcp -e 1040 -c 2 -i 14 -a 2 -x {1.0 5.0 -1 ---A--- null}
r -t 0.8953792 -s 3 -d 5 -p tcp -e 1040 -c 2 -i 14 -a 2 -x {1.0 5.0 1 ---A--- null}
+ -t 0.8953792 -s 5 -d 3 -p ack -e 40 -c 2 -i 31 -a 2 -x {5.0 1.0 2 ------- null}
- -t 0.8953792 -s 5 -d 3 -p ack -e 40 -c 2 -i 31 -a 2 -x {5.0 1.0 2 ------- null}
h -t 0.8953792 -s 5 -d 3 -p ack -e 40 -c 2 -i 31 -a 2 -x {5.0 1.0 -1 ------- null}
r -t 0.9073824 -s 5 -d 3 -p ack -e 40 -c 2 -i 31 -a 2 -x {5.0 1.0 2 ------- null}
+ -t 0.9073824 -s 3 -d 2 -p ack -e 40 -c 2 -i 31 -a 2 -x {5.0 1.0 2 ------- null}
- -t 0.9073824 -s 3 -d 2 -p ack -e 40 -c 2 -i 31 -a 2 -x {5.0 1.0 2 ------- null}
h -t 0.9073824 -s 3 -d 2 -p ack -e 40 -c 2 -i 31 -a 2 -x {5.0 1.0 -1 ------- null}
r -t 0.9115824 -s 3 -d 2 -p ack -e 40 -c 2 -i 31 -a 2 -x {5.0 1.0 2 ------- null}
+ -t 0.9115824 -s 2 -d 1 -p ack -e 40 -c 2 -i 31 -a 2 -x {5.0 1.0 2 ------- null}
- -t 0.9115824 -s 2 -d 1 -p ack -e 40 -c 2 -i 31 -a 2 -x {5.0 1.0 2 ------- null}
h -t 0.9115824 -s 2 -d 1 -p ack -e 40 -c 2 -i 31 -a 2 -x {5.0 1.0 -1 ------- null}
r -t 0.9335856 -s 2 -d 1 -p ack -e 40 -c 2 -i 31 -a 2 -x {5.0 1.0 2 ------- null}
+ -t 0.9335856 -s 1 -d 2 -p tcp -e 1040 -c 2 -i 32 -a 2 -x {1.0 5.0 5 ------- null}
- -t 0.9335856 -s 1 -d 2 -p tcp -e 1040 -c 2 -i 32 -a 2 -x {1.0 5.0 5 ------- null}
h -t 0.9335856 -s 1 -d 2 -p tcp -e 1040 -c 2 -i 32 -a 2 -x {1.0 5.0 -1 ------- null}
+ -t 0.9375856 -s 1 -d 2 -p tcp -e 1040 -c 2 -i 33 -a 2 -x {1.0 5.0 3 ---A--- null}
- -t 0.9375856 -s 1 -d 2 -p tcp -e 1040 -c 2 -i 33 -a 2 -x {1.0 5.0 3 ---A--- null}
h -t 0.9375856 -s 1 -d 2 -p tcp -e 1040 -c 2 -i 33 -a 2 -x {1.0 5.0 -1 ---A--- null}
r -t 0.9556688 -s 1 -d 2 -p tcp -e 1040 -c 2 -i 32 -a 2 -x {1.0 5.0 5 ------- null}
+ -t 0.9556688 -s 2 -d 3 -p tcp -e 1040 -c 2 -i 32 -a 2 -x {1.0 5.0 5 ------- null}
r -t 0.9596688 -s 1 -d 2 -p tcp -e 1040 -c 2 -i 33 -a 2 -x {1.0 5.0 3 ---A--- null}
+ -t 0.9596688 -s 2 -d 3 -p tcp -e 1040 -c 2 -i 33 -a 2 -x {1.0 5.0 3 ---A--- null}
d -t 0.9596688 -s 2 -d 3 -p tcp -e 1040 -c 2 -i 33 -a 2 -x {1.0 5.0 3 ---A--- null}
- -t 0.965496 -s 2 -d 3 -p tcp -e 1040 -c 2 -i 17 -a 2 -x {1.0 5.0 3 ------- null}
h -t 0.965496 -s 2 -d 3 -p tcp -e 1040 -c 2 -i 17 -a 2 -x {1.0 5.0 -1 ------- null}
r -t 0.966496 -s 2 -d 3 -p tcp -e 1040 -c 2 -i 16 -a 2 -x {1.0 5.0 2 ------- null}
+ -t 0.966496 -s 3 -d 5 -p tcp -e 1040 -c 2 -i 16 -a 2 -x {1.0 5.0 2 ------- null}
- -t 0.966496 -s 3 -d 5 -p tcp -e 1040 -c 2 -i 16 -a 2 -x {1.0 5.0 2 ------- null}
h -t 0.966496 -s 3 -d 5 -p tcp -e 1040 -c 2 -i 16 -a 2 -x {1.0 5.0 -1 ------- null}
r -t 0.9785792 -s 3 -d 5 -p tcp -e 1040 -c 2 -i 16 -a 2 -x {1.0 5.0 2 ------- null}
+ -t 0.9785792 -s 5 -d 3 -p ack -e 40 -c 2 -i 34 -a 2 -x {5.0 1.0 2 ------- null}
- -t 0.9785792 -s 5 -d 3 -p ack -e 40 -c 2 -i 34 -a 2 -x {5.0 1.0 2 ------- null}
h -t 0.9785792 -s 5 -d 3 -p ack -e 40 -c 2 -i 34 -a 2 -x {5.0 1.0 -1 ------- null}
r -t 0.9905824 -s 5 -d 3 -p ack -e 40 -c 2 -i 34 -a 2 -x {5.0 1.0 2 ------- null}
+ -t 0.9905824 -s 3 -d 2 -p ack -e 40 -c 2 -i 34 -a 2 -x {5.0 1.0 2 ------- null}
- -t 0.9905824 -s 3 -d 2 -p ack -e 40 -c 2 -i 34 -a 2 -x {5.0 1.0 2 ------- null}
h -t 0.9905824 -s 3 -d 2 -p ack -e 40 -c 2 -i 34 -a 2 -x {5.0 1.0 -1 ------- null}
r -t 0.9947824 -s 3 -d 2 -p ack -e 40 -c 2 -i 34 -a 2 -x {5.0 1.0 2 ------- null}
+ -t 0.9947824 -s 2 -d 1 -p ack -e 40 -c 2 -i 34 -a 2 -x {5.0 1.0 2 ------- null}
- -t 0.9947824 -s 2 -d 1 -p ack -e 40 -c 2 -i 34 -a 2 -x {5.0 1.0 2 ------- null}
h -t 0.9947824 -s 2 -d 1 -p ack -e 40 -c 2 -i 34 -a 2 -x {5.0 1.0 -1 ------- null}
r -t 1.0167856 -s 2 -d 1 -p ack -e 40 -c 2 -i 34 -a 2 -x {5.0 1.0 2 ------- null}
+ -t 1.0167856 -s 1 -d 2 -p tcp -e 1040 -c 2 -i 35 -a 2 -x {1.0 5.0 4 ------- null}
- -t 1.0167856 -s 1 -d 2 -p tcp -e 1040 -c 2 -i 35 -a 2 -x {1.0 5.0 4 ------- null}
h -t 1.0167856 -s 1 -d 2 -p tcp -e 1040 -c 2 -i 35 -a 2 -x {1.0 5.0 -1 ------- null}
r -t 1.0388688 -s 1 -d 2 -p tcp -e 1040 -c 2 -i 35 -a 2 -x {1.0 5.0 4 ------- null}
+ -t 1.0388688 -s 2 -d 3 -p tcp -e 1040 -c 2 -i 35 -a 2 -x {1.0 5.0 4 ------- null}