V -t * -v 1.0a5 -a 0
A -t * -n 1 -p 0 -o 0x7fffffff -c 30 -a 1
A -t * -h 1 -m 1073741823 -s 0
c -t * -i 1 -n Blue
c -t * -i 2 -n Red
n -t * -a 4 -s 4 -S UP -v circle -c black -i black
n -t * -a 0 -s 0 -S UP -v circle -c black -i black
n -t * -a 5 -s 5 -S UP -v circle -c black -i black
n -t * -a 1 -s 1 -S UP -v circle -c black -i black
n -t * -a 2 -s 2 -S UP -v circle -c black -i black
n -t * -a 3 -s 3 -S UP -v circle -c black -i black
l -t * -s 0 -d 2 -S UP -r 100000000 -D 0.0050000000000000001 -c black -o right-down
l -t * -s 1 -d 2 -S UP -r 100000000 -D 0.021000000000000001 -c black -o right-up
l -t * -s 2 -d 3 -S UP -r 100000 -D 0.001 -c black -o right
l -t * -s 3 -d 4 -S UP -r 100000000 -D 0.0050000000000000001 -c black -o right-up
l -t * -s 3 -d 5 -S UP -r 100000000 -D 0.016 -c black -o right-down
q -t * -s 3 -d 2 -a 0.5
q -t * -s 2 -d 3 -a 0.5
+ -t 0.1 -s 0 -d 2 -p tcp -e 40 -c 1 -i 0 -a 1 -x {0.0 4.0 0 ------- null}
- -t 0.1 -s 0 -d 2 -p tcp -e 40 -c 1 -i 0 -a 1 -x {0.0 4.0 0 ------- null}
h -t 0.1 -s 0 -d 2 -p tcp -e 40 -c 1 -i 0 -a 1 -x {0.0 4.0 -1 ------- null}
+ -t 0.1 -s 1 -d 2 -p tcp -e 40 -c 2 -i 1 -a 2 -x {1.0 5.0 0 ------- null}
- -t 0.1 -s 1 -d 2 -p tcp -e 40 -c 2 -i 1 -a 2 -x {1.0 5.0 0 ------- null}
h -t 0.1 -s 1 -d 2 -p tcp -e 40 -c 2 -i 1 -a 2 -x {1.0 5.0 -1 ------- null}
r -t 0.1050032 -s 0 -d 2 -p tcp -e 40 -c 1 -i 0 -a 1 -x {0.0 4.0 0 ------- null}
+ -t 0.1050032 -s 2 -d 3 -p tcp -e 40 -c 1 -i 0 -a 1 -x {0.0 4.0 0 ------- null}
- -t 0.1050032 -s 2 -d 3 -p tcp -e 40 -c 1 -i 0 -a 1 -x {0.0 4.0 0 ------- null}
h -t 0.1050032 -s 2 -d 3 -p tcp -e 40 -c 1 -i 0 -a 1 -x {0.0 4.0 -1 ------- null}
r -t 0.1092032 -s 2 -d 3 -p tcp -e 40 -c 1 -i 0 -a 1 -x {0.0 4.0 0 ------- null}
+ -t 0.1092032 -s 3 -d 4 -p tcp -e 40 -c 1 -i 0 -a 1 -x {0.0 4.0 0 ------- null}
- -t 0.1092032 -s 3 -d 4 -p tcp -e 40 -c 1 -i 0 -a 1 -x {0.0 4.0 0 ------- null}
h -t 0.1092032 -s 3 -d 4 -p tcp -e 40 -c 1 -i 0 -a 1 -x {0.0 4.0 -1 ------- null}
r -t 0.1142064 -s 3 -d 4 -p tcp -e 40 -c 1 -i 0 -a 1 -x {0.0 4.0 0 ------- null}
+ -t 0.1142064 -s 4 -d 3 -p ack -e 40 -c 1 -i 2 -a 1 -x {4.0 0.0 0 ------- null}
- -t 0.1142064 -s 4 -d 3 -p ack -e 40 -c 1 -i 2 -a 1 -x {4.0 0.0 0 ------- null}
h -t 0.1142064 -s 4 -d 3 -p ack -e 40 -c 1 -i 2 -a 1 -x {4.0 0.0 -1 ------- null}
r -t 0.1192096 -s 4 -d 3 -p ack -e 40 -c 1 -i 2 -a 1 -x {4.0 0.0 0 ------- null}
+ -t 0.1192096 -s 3 -d 2 -p ack -e 40 -c 1 -i 2 -a 1 -x {4.0 0.0 0 ------- null}
- -t 0.1192096 -s 3 -d 2 -p ack -e 40 -c 1 -i 2 -a 1 -x {4.0 0.0 0 ------- null}
h -t 0.1192096 -s 3 -d 2 -p ack -e 40 -c 1 -i 2 -a 1 -x {4.0 0.0 -1 ------- null}
r -t 0.1210032 -s 1 -d 2 -p tcp -e 40 -c 2 -i 1 -a 2 -x {1.0 5.0 0 ------- null}
+ -t 0.1210032 -s 2 -d 3 -p tcp -e 40 -c 2 -i 1 -a 2 -x {1.0 5.0 0 ------- null}
- -t 0.1210032 -s 2 -d 3 -p tcp -e 40 -c 2 -i 1 -a 2 -x {1.0 5.0 0 ------- null}
h -t 0.1210032 -s 2 -d 3 -p tcp -e 40 -c 2 -i 1 -a 2 -x {1.0 5.0 -1 ------- null}
r -t 0.1234096 -s 3 -d 2 -p ack -e 40 -c 1 -i 2 -a 1 -x {4.0 0.0 0 ------- null}
+ -t 0.1234096 -s 2 -d 0 -p ack -e 40 -c 1 -i 2 -a 1 -x {4.0 0.0 0 ------- null}
- -t 0.1234096 -s 2 -d 0 -p ack -e 40 -c 1 -i 2 -a 1 -x {4.0 0.0 0 ------- null}
h -t 0.1234096 -s 2 -d 0 -p ack -e 40 -c 1 -i 2 -a 1 -x {4.0 0.0 -1 ------- null}
r -t 0.1252032 -s 2 -d 3 -p tcp -e 40 -c 2 -i 1 -a 2 -x {1.0 5.0 0 ------- null}
+ -t 0.1252032 -s 3 -d 5 -p tcp -e 40 -c 2 -i 1 -a 2 -x {1.0 5.0 0 ------- null}
- -t 0.1252032 -s 3 -d 5 -p tcp -e 40 -c 2 -i 1 -a 2 -x {1.0 5.0 0 ------- null}
h -t 0.1252032 -s 3 -d 5 -p tcp -e 40 -c 2 -i 1 -a 2 -x {1.0 5.0 -1 ------- null}
r -t 0.1284128 -s 2 -d 0 -p ack -e 40 -c 1 -i 2 -a 1 -x {4.0 0.0 0 ------- null}
+ -t 0.1284128 -s 0 -d 2 -p tcp -e 1000 -c 1 -i 3 -a 1 -x {0.0 4.0 1 ------- null}
- -t 0.1284128 -s 0 -d 2 -p tcp -e 1000 -c 1 -i 3 -a 1 -x {0.0 4.0 1 ------- null}
h -t 0.1284128 -s 0 -d 2 -p tcp -e 1000 -c 1 -i 3 -a 1 -x {0.0 4.0 -1 ------- null}
+ -t 0.1284128 -s 0 -d 2 -p tcp -e 1000 -c 1 -i 4 -a 1 -x {0.0 4.0 2 ------- null}
- -t 0.1284928 -s 0 -d 2 -p tcp -e 1000 -c 1 -i 4 -a 1 -x {0.0 4.0 2 ------- null}
h -t 0.1284928 -s 0 -d 2 -p tcp -e 1000 -c 1 -i 4 -a 1 -x {0.0 4.0 -1 ------- null}
r -t 0.1334928 -s 0 -d 2 -p tcp -e 1000 -c 1 -i 3 -a 1 -x {0.0 4.0 1 ------- null}
+ -t 0.1334928 -s 2 -d 3 -p tcp -e 1000 -c 1 -i 3 -a 1 -x {0.0 4.0 1 ------- null}
- -t 0.1334928 -s 2 -d 3 -p tcp -e 1000 -c 1 -i 3 -a 1 -x {0.0 4.0 1 ------- null}
h -t 0.1334928 -s 2 -d 3 -p tcp -e 1000 -c 1 -i 3 -a 1 -x {0.0 4.0 -1 ------- null}
r -t 0.1335728 -s 0 -d 2 -p tcp -e 1000 -c 1 -i 4 -a 1 -x {0.0 4.0 2 ------- null}
+ -t 0.1335728 -s 2 -d 3 -p tcp -e 1000 -c 1 -i 4 -a 1 -x {0.0 4.0 2 ------- null}
r -t 0.1412064 -s 3 -d 5 -p tcp -e 40 -c 2 -i 1 -a 2 -x {1.0 5.0 0 ------- null}
+ -t 0.1412064 -s 5 -d 3 -p ack -e 40 -c 2 -i 5 -a 2 -x {5.0 1.0 0 ------- null}
- -t 0.1412064 -s 5 -d 3 -p ack -e 40 -c 2 -i 5 -a 2 -x {5.0 1.0 0 ------- null}
h -t 0.1412064 -s 5 -d 3 -p ack -e 40 -c 2 -i 5 -a 2 -x {5.0 1.0 -1 ------- null}
r -t 0.1572096 -s 5 -d 3 -p ack -e 40 -c 2 -i 5 -a 2 -x {5.0 1.0 0 ------- null}
+ -t 0.1572096 -s 3 -d 2 -p ack -e 40 -c 2 -i 5 -a 2 -x {5.0 1.0 0 ------- null}
- -t 0.1572096 -s 3 -d 2 -p ack -e 40 -c 2 -i 5 -a 2 -x {5.0 1.0 0 ------- null}
h -t 0.1572096 -s 3 -d 2 -p ack -e 40 -c 2 -i 5 -a 2 -x {5.0 1.0 -1 ------- null}
r -t 0.1614096 -s 3 -d 2 -p ack -e 40 -c 2 -i 5 -a 2 -x {5.0 1.0 0 ------- null}
+ -t 0.1614096 -s 2 -d 1 -p ack -e 40 -c 2 -i 5 -a 2 -x {5.0 1.0 0 ------- null}
- -t 0.1614096 -s 2 -d 1 -p ack -e 40 -c 2 -i 5 -a 2 -x {5.0 1.0 0 ------- null}
h -t 0.1614096 -s 2 -d 1 -p ack -e 40 -c 2 -i 5 -a 2 -x {5.0 1.0 -1 ------- null}
r -t 0.1824128 -s 2 -d 1 -p ack -e 40 -c 2 -i 5 -a 2 -x {5.0 1.0 0 ------- null}
+ -t 0.1824128 -s 1 -d 2 -p tcp -e 1000 -c 2 -i 6 -a 2 -x {1.0 5.0 1 ------- null}
- -t 0.1824128 -s 1 -d 2 -p tcp -e 1000 -c 2 -i 6 -a 2 -x {1.0 5.0 1 ------- null}
h -t 0.1824128 -s 1 -d 2 -p tcp -e 1000 -c 2 -i 6 -a 2 -x {1.0 5.0 -1 ------- null}
+ -t 0.1824128 -s 1 -d 2 -p tcp -e 1000 -c 2 -i 7 -a 2 -x {1.0 5.0 2 ------- null}
- -t 0.1824928 -s 1 -d 2 -p tcp -e 1000 -c 2 -i 7 -a 2 -x {1.0 5.0 2 ------- null}
h -t 0.1824928 -s 1 -d 2 -p tcp -e 1000 -c 2 -i 7 -a 2 -x {1.0 5.0 -1 ------- null}
r -t 0.2034928 -s 1 -d 2 -p tcp -e 1000 -c 2 -i 6 -a 2 -x {1.0 5.0 1 ------- null}
+ -t 0.2034928 -s 2 -d 3 -p tcp -e 1000 -c 2 -i 6 -a 2 -x {1.0 5.0 1 ------- null}
r -t 0.2035728 -s 1 -d 2 -p tcp -e 1000 -c 2 -i 7 -a 2 -x {1.0 5.0 2 ------- null}
+ -t 0.2035728 -s 2 -d 3 -p tcp -e 1000 -c 2 -i 7 -a 2 -x {1.0 5.0 2 ------- null}
- -t 0.2134928 -s 2 -d 3 -p tcp -e 1000 -c 1 -i 4 -a 1 -x {0.0 4.0 2 ------- null}
h -t 0.2134928 -s 2 -d 3 -p tcp -e 1000 -c 1 -i 4 -a 1 -x {0.0 4.0 -1 ------- null}
r -t 0.2144928 -s 2 -d 3 -p tcp -e 1000 -c 1 -i 3 -a 1 -x {0.0 4.0 1 ------- null}
+ -t 0.2144928 -s 3 -d 4 -p tcp -e 1000 -c 1 -i 3 -a 1 -x {0.0 4.0 1 ------- null}
- -t 0.2144928 -s 3 -d 4 -p tcp -e 1000 -c 1 -i 3 -a 1 -x {0.0 4.0 1 ------- null}
h -t 0.2144928 -s 3 -d 4 -p tcp -e 1000 -c 1 -i 3 -a 1 -x {0.0 4.0 -1 ------- null}
r -t 0.2195728 -s 3 -d 4 -p tcp -e 1000 -c 1 -i 3 -a 1 -x {0.0 4.0 1 ------- null}
+ -t 0.2195728 -s 4 -d 3 -p ack -e 40 -c 1 -i 8 -a 1 -x {4.0 0.0 1 ------- null}
- -t 0.2195728 -s 4 -d 3 -p ack -e 40 -c 1 -i 8 -a 1 -x {4.0 0.0 1 ------- null}
h -t 0.2195728 -s 4 -d 3 -p ack -e 40 -c 1 -i 8 -a 1 -x {4.0 0.0 -1 ------- null}
r -t 0.224576 -s 4 -d 3 -p ack -e 40 -c 1 -i 8 -a 1 -x {4.0 0.0 1 ------- null}
+ -t 0.224576 -s 3 -d 2 -p ack -e 40 -c 1 -i 8 -a 1 -x {4.0 0.0 1 ------- null}
- -t 0.224576 -s 3 -d 2 -p ack -e 40 -c 1 -i 8 -a 1 -x {4.0 0.0 1 ------- null}
h -t 0.224576 -s 3 -d 2 -p ack -e 40 -c 1 -i 8 -a 1 -x {4.0 0.0 -1 ------- null}
r -t 0.228776 -s 3 -d 2 -p ack -e 40 -c 1 -i 8 -a 1 -x {4.0 0.0 1 ------- null}
+ -t 0.228776 -s 2 -d 0 -p ack -e 40 -c 1 -i 8 -a 1 -x {4.0 0.0 1 ------- null}
- -t 0.228776 -s 2 -d 0 -p ack -e 40 -c 1 -i 8 -a 1 -x {4.0 0.0 1 ------- null}
h -t 0.228776 -s 2 -d 0 -p ack -e 40 -c 1 -i 8 -a 1 -x {4.0 0.0 -1 ------- null}
r -t 0.2337792 -s 2 -d 0 -p ack -e 40 -c 1 -i 8 -a 1 -x {4.0 0.0 1 ------- null}
+ -t 0.2337792 -s 0 -d 2 -p tcp -e 1000 -c 1 -i 9 -a 1 -x {0.0 4.0 3 ------- null}
- -t 0.2337792 -s 0 -d 2 -p tcp -e 1000 -c 1 -i 9 -a 1 -x {0.0 4.0 3 ------- null}
h -t 0.2337792 -s 0 -d 2 -p tcp -e 1000 -c 1 -i 9 -a 1 -x {0.0 4.0 -1 ------- null}
+ -t 0.2337792 -s 0 -d 2 -p tcp -e 1000 -c 1 -i 10 -a 1 -x {0.0 4.0 4 ------- null}
- -t 0.2338592 -s 0 -d 2 -p tcp -e 1000 -c 1 -i 10 -a 1 -x {0.0 4.0 4 ------- null}
h -t 0.2338592 -s 0 -d 2 -p tcp -e 1000 -c 1 -i 10 -a 1 -x {0.0 4.0 -1 ------- null}
r -t 0.2388592 -s 0 -d 2 -p tcp -e 1000 -c 1 -i 9 -a 1 -x {0.0 4.0 3 ------- null}
+ -t 0.2388592 -s 2 -d 3 -p tcp -e 1000 -c 1 -i 9 -a 1 -x {0.0 4.0 3 ------- null}
r -t 0.2389392 -s 0 -d 2 -p tcp -e 1000 -c 1 -i 10 -a 1 -x {0.0 4.0 4 ------- null}
+ -t 0.2389392 -s 2 -d 3 -p tcp -e 1000 -c 1 -i 10 -a 1 -x {0.0 4.0 4 ------- null}
- -t 0.2934928 -s 2 -d 3 -p tcp -e 1000 -c 2 -i 6 -a 2 -x {1.0 5.0 1 ------- null}
h -t 0.2934928 -s 2 -d 3 -p tcp -e 1000 -c 2 -i 6 -a 2 -x {1.0 5.0 -1 ------- null}
r -t 0.2944928 -s 2 -d 3 -p tcp -e 1000 -c 1 -i 4 -a 1 -x {0.0 4.0 2 ------- null}
+ -t 0.2944928 -s 3 -d 4 -p tcp -e 1000 -c 1 -i 4 -a 1 -x {0.0 4.0 2 ------- null}
- -t 0.2944928 -s 3 -d 4 -p tcp -e 1000 -c 1 -i 4 -a 1 -x {0.0 4.0 2 ------- null}
h -t 0.2944928 -s 3 -d 4 -p tcp -e 1000 -c 1 -i 4 -a 1 -x {0.0 4.0 -1 ------- null}
r -t 0.2995728 -s 3 -d 4 -p tcp -e 1000 -c 1 -i 4 -a 1 -x {0.0 4.0 2 ------- null}
+ -t 0.2995728 -s 4 -d 3 -p ack -e 40 -c 1 -i 11 -a 1 -x {4.0 0.0 2 ------- null}
- -t 0.2995728 -s 4 -d 3 -p ack -e 40 -c 1 -i 11 -a 1 -x {4.0 0.0 2 ------- null}
h -t 0.2995728 -s 4 -d 3 -p ack -e 40 -c 1 -i 11 -a 1 -x {4.0 0.0 -1 ------- null}
r -t 0.304576 -s 4 -d 3 -p ack -e 40 -c 1 -i 11 -a 1 -x {4.0 0.0 2 ------- null}
+ -t 0.304576 -s 3 -d 2 -p ack -e 40 -c 1 -i 11 -a 1 -x {4.0 0.0 2 ------- null}
- -t 0.304576 -s 3 -d 2 -p ack -e 40 -c 1 -i 11 -a 1 -x {4.0 0.0 2 ------- null}
h -t 0.304576 -s 3 -d 2 -p ack -e 40 -c 1 -i 11 -a 1 -x {4.0 0.0 -1 ------- null}
r -t 0.308776 -s 3 -d 2 -p ack -e 40 -c 1 -i 11 -a 1 -x {4.0 0.0 2 ------- null}
+ -t 0.308776 -s 2 -d 0 -p ack -e 40 -c 1 -i 11 -a 1 -x {4.0 0.0 2 ------- null}
- -t 0.308776 -s 2 -d 0 -p ack -e 40 -c 1 -i 11 -a 1 -x {4.0 0.0 2 ------- null}
h -t 0.308776 -s 2 -d 0 -p ack -e 40 -c 1 -i 11 -a 1 -x {4.0 0.0 -1 ------- null}
r -t 0.3137792 -s 2 -d 0 -p ack -e 40 -c 1 -i 11 -a 1 -x {4.0 0.0 2 ------- null}
+ -t 0.3137792 -s 0 -d 2 -p tcp -e 1000 -c 1 -i 12 -a 1 -x {0.0 4.0 5 ------- null}
- -t 0.3137792 -s 0 -d 2 -p tcp -e 1000 -c 1 -i 12 -a 1 -x {0.0 4.0 5 ------- null}
h -t 0.3137792 -s 0 -d 2 -p tcp -e 1000 -c 1 -i 12 -a 1 -x {0.0 4.0 -1 ------- null}
+ -t 0.3137792 -s 0 -d 2 -p tcp -e 1000 -c 1 -i 13 -a 1 -x {0.0 4.0 6 ------- null}
- -t 0.3138592 -s 0 -d 2 -p tcp -e 1000 -c 1 -i 13 -a 1 -x {0.0 4.0 6 ------- null}
h -t 0.3138592 -s 0 -d 2 -p tcp -e 1000 -c 1 -i 13 -a 1 -x {0.0 4.0 -1 ------- null}
r -t 0.3188592 -s 0 -d 2 -p tcp -e 1000 -c 1 -i 12 -a 1 -x {0.0 4.0 5 ------- null}
+ -t 0.3188592 -s 2 -d 3 -p tcp -e 1000 -c 1 -i 12 -a 1 -x {0.0 4.0 5 ------- null}
r -t 0.3189392 -s 0 -d 2 -p tcp -e 1000 -c 1 -i 13 -a 1 -x {0.0 4.0 6 ------- null}
+ -t 0.3189392 -s 2 -d 3 -p tcp -e 1000 -c 1 -i 13 -a 1 -x {0.0 4.0 6 ------- null}
- -t 0.3734928 -s 2 -d 3 -p tcp -e 1000 -c 2 -i 7 -a 2 -x {1.0 5.0 2 ------- null}
h -t 0.3734928 -s 2 -d 3 -p tcp -e 1000 -c 2 -i 7 -a 2 -x {1.0 5.0 -1 ------- null}
r -t 0.3744928 -s 2 -d 3 -p tcp -e 1000 -c 2 -i 6 -a 2 -x {1.0 5.0 1 ------- null}
+ -t 0.3744928 -s 3 -d 5 -p tcp -e 1000 -c 2 -i 6 -a 2 -x {1.0 5.0 1 ------- null}
- -t 0.3744928 -s 3 -d 5 -p tcp -e 1000 -c 2 -i 6 -a 2 -x {1.0 5.0 1 ------- null}
h -t 0.3744928 -s 3 -d 5 -p tcp -e 1000 -c 2 -i 6 -a 2 -x {1.0 5.0 -1 ------- null}
r -t 0.3905728 -s 3 -d 5 -p tcp -e 1000 -c 2 -i 6 -a 2 -x {1.0 5.0 1 ------- null}
+ -t 0.3905728 -s 5 -d 3 -p ack -e 40 -c 2 -i 14 -a 2 -x {5.0 1.0 1 ------- null}
- -t 0.3905728 -s 5 -d 3 -p ack -e 40 -c 2 -i 14 -a 2 -x {5.0 1.0 1 ------- null}
h -t 0.3905728 -s 5 -d 3 -p ack -e 40 -c 2 -i 14 -a 2 -x {5.0 1.0 -1 ------- null}
r -t 0.406576 -s 5 -d 3 -p ack -e 40 -c 2 -i 14 -a 2 -x {5.0 1.0 1 ------- null}
+ -t 0.406576 -s 3 -d 2 -p ack -e 40 -c 2 -i 14 -a 2 -x {5.0 1.0 1 ------- null}
- -t 0.406576 -s 3 -d 2 -p ack -e 40 -c 2 -i 14 -a 2 -x {5.0 1.0 1 ------- null}
h -t 0.406576 -s 3 -d 2 -p ack -e 40 -c 2 -i 14 -a 2 -x {5.0 1.0 -1 ------- null}
r -t 0.410776 -s 3 -d 2 -p ack -e 40 -c 2 -i 14 -a 2 -x {5.0 1.0 1 ------- null}
+ -t 0.410776 -s 2 -d 1 -p ack -e 40 -c 2 -i 14 -a 2 -x {5.0 1.0 1 ------- null}
- -t 0.410776 -s 2 -d 1 -p ack -e 40 -c 2 -i 14 -a 2 -x {5.0 1.0 1 ------- null}
h -t 0.410776 -s 2 -d 1 -p ack -e 40 -c 2 -i 14 -a 2 -x {5.0 1.0 -1 ------- null}
+ -t 0.4224128 -s 1 -d 2 -p tcp -e 1000 -c 2 -i 15 -a 2 -x {1.0 5.0 1 ---A--- null}
- -t 0.4224128 -s 1 -d 2 -p tcp -e 1000 -c 2 -i 15 -a 2 -x {1.0 5.0 1 ---A--- null}
h -t 0.4224128 -s 1 -d 2 -p tcp -e 1000 -c 2 -i 15 -a 2 -x {1.0 5.0 -1 ---A--- null}
r -t 0.4317792 -s 2 -d 1 -p ack -e 40 -c 2 -i 14 -a 2 -x {5.0 1.0 1 ------- null}
+ -t 0.4317792 -s 1 -d 2 -p tcp -e 1000 -c 2 -i 16 -a 2 -x {1.0 5.0 2 ------- null}
- -t 0.4317792 -s 1 -d 2 -p tcp -e 1000 -c 2 -i 16 -a 2 -x {1.0 5.0 2 ------- null}
h -t 0.4317792 -s 1 -d 2 -p tcp -e 1000 -c 2 -i 16 -a 2 -x {1.0 5.0 -1 ------- null}
+ -t 0.4317792 -s 1 -d 2 -p tcp -e 1000 -c 2 -i 17 -a 2 -x {1.0 5.0 3 ------- null}
- -t 0.4318592 -s 1 -d 2 -p tcp -e 1000 -c 2 -i 17 -a 2 -x {1.0 5.0 3 ------- null}
h -t 0.4318592 -s 1 -d 2 -p tcp -e 1000 -c 2 -i 17 -a 2 -x {1.0 5.0 -1 ------- null}
r -t 0.4434928 -s 1 -d 2 -p tcp -e 1000 -c 2 -i 15 -a 2 -x {1.0 5.0 1 ---A--- null}
+ -t 0.4434928 -s 2 -d 3 -p tcp -e 1000 -c 2 -i 15 -a 2 -x {1.0 5.0 1 ---A--- null}
r -t 0.4528592 -s 1 -d 2 -p tcp -e 1000 -c 2 -i 16 -a 2 -x {1.0 5.0 2 ------- null}
+ -t 0.4528592 -s 2 -d 3 -p tcp -e 1000 -c 2 -i 16 -a 2 -x {1.0 5.0 2 ------- null}
r -t 0.4529392 -s 1 -d 2 -p tcp -e 1000 -c 2 -i 17 -a 2 -x {1.0 5.0 3 ------- null}
+ -t 0.4529392 -s 2 -d 3 -p tcp -e 1000 -c 2 -i 17 -a 2 -x {1.0 5.0 3 ------- null}
- -t 0.4534928 -s 2 -d 3 -p tcp -e 1000 -c 1 -i 9 -a 1 -x {0.0 4.0 3 ------- null}
h -t 0.4534928 -s 2 -d 3 -p tcp -e 1000 -c 1 -i 9 -a 1 -x {0.0 4.0 -1 ------- null}
r -t 0.4544928 -s 2 -d 3 -p tcp -e 1000 -c 2 -i 7 -a 2 -x {1.0 5.0 2 ------- null}
+ -t 0.4544928 -s 3 -d 5 -p tcp -e 1000 -c 2 -i 7 -a 2 -x {1.0 5.0 2 ------- null}
- -t 0.4544928 -s 3 -d 5 -p tcp -e 1000 -c 2 -i 7 -a 2 -x {1.0 5.0 2 ------- null}
h -t 0.4544928 -s 3 -d 5 -p tcp -e 1000 -c 2 -i 7 -a 2 -x {1.0 5.0 -1 ------- null}
r -t 0.4705728 -s 3 -d 5 -p tcp -e 1000 -c 2 -i 7 -a 2 -x {1.0 5.0 2 ------- null}
+ -t 0.4705728 -s 5 -d 3 -p ack -e 40 -c 2 -i 18 -a 2 -x {5.0 1.0 2 ------- null}
- -t 0.4705728 -s 5 -d 3 -p ack -e 40 -c 2 -i 18 -a 2 -x {5.0 1.0 2 ------- null}
h -t 0.4705728 -s 5 -d 3 -p ack -e 40 -c 2 -i 18 -a 2 -x {5.0 1.0 -1 ------- null}
r -t 0.486576 -s 5 -d 3 -p ack -e 40 -c 2 -i 18 -a 2 -x {5.0 1.0 2 ------- null}
+ -t 0.486576 -s 3 -d 2 -p ack -e 40 -c 2 -i 18 -a 2 -x {5.0 1.0 2 ------- null}
- -t 0.486576 -s 3 -d 2 -p ack -e 40 -c 2 -i 18 -a 2 -x {5.0 1.0 2 ------- null}
h -t 0.486576 -s 3 -d 2 -p ack -e 40 -c 2 -i 18 -a 2 -x {5.0 1.0 -1 ------- null}
r -t 0.490776 -s 3 -d 2 -p ack -e 40 -c 2 -i 18 -a 2 -x {5.0 1.0 2 ------- null}
+ -t 0.490776 -s 2 -d 1 -p ack -e 40 -c 2 -i 18 -a 2 -x {5.0 1.0 2 ------- null}
- -t 0.490776 -s 2 -d 1 -p ack -e 40 -c 2 -i 18 -a 2 -x {5.0 1.0 2 ------- null}
h -t 0.490776 -s 2 -d 1 -p ack -e 40 -c 2 -i 18 -a 2 -x {5.0 1.0 -1 ------- null}
r -t 0.5117792 -s 2 -d 1 -p ack -e 40 -c 2 -i 18 -a 2 -x {5.0 1.0 2 ------- null}
+ -t 0.5117792 -s 1 -d 2 -p tcp -e 1000 -c 2 -i 19 -a 2 -x {1.0 5.0 4 ------- null}
- -t 0.5117792 -s 1 -d 2 -p tcp -e 1000 -c 2 -i 19 -a 2 -x {1.0 5.0 4 ------- null}
h -t 0.5117792 -s 1 -d 2 -p tcp -e 1000 -c 2 -i 19 -a 2 -x {1.0 5.0 -1 ------- null}
+ -t 0.5137792 -s 0 -d 2 -p tcp -e 1000 -c 1 -i 20 -a 1 -x {0.0 4.0 3 ---A--- null}
- -t 0.5137792 -s 0 -d 2 -p tcp -e 1000 -c 1 -i 20 -a 1 -x {0.0 4.0 3 ---A--- null}
h -t 0.5137792 -s 0 -d 2 -p tcp -e 1000 -c 1 -i 20 -a 1 -x {0.0 4.0 -1 ---A--- null}
r -t 0.5188592 -s 0 -d 2 -p tcp -e 1000 -c 1 -i 20 -a 1 -x {0.0 4.0 3 ---A--- null}
+ -t 0.5188592 -s 2 -d 3 -p tcp -e 1000 -c 1 -i 20 -a 1 -x {0.0 4.0 3 ---A--- null}
r -t 0.5328592 -s 1 -d 2 -p tcp -e 1000 -c 2 -i 19 -a 2 -x {1.0 5.0 4 ------- null}
+ -t 0.5328592 -s 2 -d 3 -p tcp -e 1000 -c 2 -i 19 -a 2 -x {1.0 5.0 4 ------- null}
- -t 0.5334928 -s 2 -d 3 -p tcp -e 1000 -c 1 -i 10 -a 1 -x {0.0 4.0 4 ------- null}
h -t 0.5334928 -s 2 -d 3 -p tcp -e 1000 -c 1 -i 10 -a 1 -x {0.0 4.0 -1 ------- null}
r -t 0.5344928 -s 2 -d 3 -p tcp -e 1000 -c 1 -i 9 -a 1 -x {0.0 4.0 3 ------- null}
+ -t 0.5344928 -s 3 -d 4 -p tcp -e 1000 -c 1 -i 9 -a 1 -x {0.0 4.0 3 ------- null}
- -t 0.5344928 -s 3 -d 4 -p tcp -e 1000 -c 1 -i 9 -a 1 -x {0.0 4.0 3 ------- null}
h -t 0.5344928 -s 3 -d 4 -p tcp -e 1000 -c 1 -i 9 -a 1 -x {0.0 4.0 -1 ------- null}
r -t 0.5395728 -s 3 -d 4 -p tcp -e 1000 -c 1 -i 9 -a 1 -x {0.0 4.0 3 ------- null}
+ -t 0.5395728 -s 4 -d 3 -p ack -e 40 -c 1 -i 21 -a 1 -x {4.0 0.0 3 ------- null}
- -t 0.5395728 -s 4 -d 3 -p ack -e 40 -c 1 -i 21 -a 1 -x {4.0 0.0 3 ------- null}
h -t 0.5395728 -s 4 -d 3 -p ack -e 40 -c 1 -i 21 -a 1 -x {4.0 0.0 -1 ------- null}
r -t 0.544576 -s 4 -d 3 -p ack -e 40 -c 1 -i 21 -a 1 -x {4.0 0.0 3 ------- null}
+ -t 0.544576 -s 3 -d 2 -p ack -e 40 -c 1 -i 21 -a 1 -x {4.0 0.0 3 ------- null}
- -t 0.544576 -s 3 -d 2 -p ack -e 40 -c 1 -i 21 -a 1 -x {4.0 0.0 3 ------- null}
h -t 0.544576 -s 3 -d 2 -p ack -e 40 -c 1 -i 21 -a 1 -x {4.0 0.0 -1 ------- null}
r -t 0.548776 -s 3 -d 2 -p ack -e 40 -c 1 -i 21 -a 1 -x {4.0 0.0 3 ------- null}
+ -t 0.548776 -s 2 -d 0 -p ack -e 40 -c 1 -i 21 -a 1 -x {4.0 0.0 3 ------- null}
- -t 0.548776 -s 2 -d 0 -p ack -e 40 -c 1 -i 21 -a 1 -x {4.0 0.0 3 ------- null}
h -t 0.548776 -s 2 -d 0 -p ack -e 40 -c 1 -i 21 -a 1 -x {4.0 0.0 -1 ------- null}
r -t 0.5537792 -s 2 -d 0 -p ack -e 40 -c 1 -i 21 -a 1 -x {4.0 0.0 3 ------- null}
+ -t 0.5537792 -s 0 -d 2 -p tcp -e 1000 -c 1 -i 22 -a 1 -x {0.0 4.0 4 ------- null}
- -t 0.5537792 -s 0 -d 2 -p tcp -e 1000 -c 1 -i 22 -a 1 -x {0.0 4.0 4 ------- null}
h -t 0.5537792 -s 0 -d 2 -p tcp -e 1000 -c 1 -i 22 -a 1 -x {0.0 4.0 -1 ------- null}
+ -t 0.5537792 -s 0 -d 2 -p tcp -e 1000 -c 1 -i 23 -a 1 -x {0.0 4.0 5 ------- null}
- -t 0.5538592 -s 0 -d 2 -p tcp -e 1000 -c 1 -i 23 -a 1 -x {0.0 4.0 5 ------- null}
h -t 0.5538592 -s 0 -d 2 -p tcp -e 1000 -c 1 -i 23 -a 1 -x {0.0 4.0 -1 ------- null}
r -t 0.5588592 -s 0 -d 2 -p tcp -e 1000 -c 1 -i 22 -a 1 -x {0.0 4.0 4 ------- null}
+ -t 0.5588592 -s 2 -d 3 -p tcp -e 1000 -c 1 -i 22 -a 1 -x {0.0 4.0 4 ------- null}
r -t 0.5589392 -s 0 -d 2 -p tcp -e 1000 -c 1 -i 23 -a 1 -x {0.0 4.0 5 ------- null}
+ -t 0.5589392 -s 2 -d 3 -p tcp -e 1000 -c 1 -i 23 -a 1 -x {0.0 4.0 5 ------- null}
- -t 0.6134928 -s 2 -d 3 -p tcp -e 1000 -c 1 -i 12 -a 1 -x {0.0 4.0 5 ------- null}
h -t 0.6134928 -s 2 -d 3 -p tcp -e 1000 -c 1 -i 12 -a 1 -x {0.0 4.0 -1 ------- null}
r -t 0.6144928 -s 2 -d 3 -p tcp -e 1000 -c 1 -i 10 -a 1 -x {0.0 4.0 4 ------- null}
+ -t 0.6144928 -s 3 -d 4 -p tcp -e 1000 -c 1 -i 10 -a 1 -x {0.0 4.0 4 ------- null}
- -t 0.6144928 -s 3 -d 4 -p tcp -e 1000 -c 1 -i 10 -a 1 -x {0.0 4.0 4 ------- null}
h -t 0.6144928 -s 3 -d 4 -p tcp -e 1000 -c 1 -i 10 -a 1 -x {0.0 4.0 -1 ------- null}
r -t 0.6195728 -s 3 -d 4 -p tcp -e 1000 -c 1 -i 10 -a 1 -x {0.0 4.0 4 ------- null}
+ -t 0.6195728 -s 4 -d 3 -p ack -e 40 -c 1 -i 24 -a 1 -x {4.0 0.0 4 ------- null}
- -t 0.6195728 -s 4 -d 3 -p ack -e 40 -c 1 -i 24 -a 1 -x {4.0 0.0 4 ------- null}
h -t 0.6195728 -s 4 -d 3 -p ack -e 40 -c 1 -i 24 -a 1 -x {4.0 0.0 -1 ------- null}
r -t 0.624576 -s 4 -d 3 -p ack -e 40 -c 1 -i 24 -a 1 -x {4.0 0.0 4 ------- null}
+ -t 0.624576 -s 3 -d 2 -p ack -e 40 -c 1 -i 24 -a 1 -x {4.0 0.0 4 ------- null}
- -t 0.624576 -s 3 -d 2 -p ack -e 40 -c 1 -i 24 -a 1 -x {4.0 0.0 4 ------- null}
h -t 0.624576 -s 3 -d 2 -p ack -e 40 -c 1 -i 24 -a 1 -x {4.0 0.0 -1 ------- null}
r -t 0.628776 -s 3 -d 2 -p ack -e 40 -c 1 -i 24 -a 1 -x {4.0 0.0 4 ------- null}
+ -t 0.628776 -s 2 -d 0 -p ack -e 40 -c 1 -i 24 -a 1 -x {4.0 0.0 4 ------- null}
- -t 0.628776 -s 2 -d 0 -p ack -e 40 -c 1 -i 24 -a 1 -x {4.0 0.0 4 ------- null}
h -t 0.628776 -s 2 -d 0 -p ack -e 40 -c 1 -i 24 -a 1 -x {4.0 0.0 -1 ------- null}
r -t 0.6337792 -s 2 -d 0 -p ack -e 40 -c 1 -i 24 -a 1 -x {4.0 0.0 4 ------- null}
+ -t 0.6337792 -s 0 -d 2 -p tcp -e 1000 -c 1 -i 25 -a 1 -x {0.0 4.0 6 ------- null}
- -t 0.6337792 -s 0 -d 2 -p tcp -e 1000 -c 1 -i 25 -a 1 -x {0.0 4.0 6 ------- null}
h -t 0.6337792 -s 0 -d 2 -p tcp -e 1000 -c 1 -i 25 -a 1 -x {0.0 4.0 -1 ------- null}
r -t 0.6388592 -s 0 -d 2 -p tcp -e 1000 -c 1 -i 25 -a 1 -x {0.0 4.0 6 ------- null}
+ -t 0.6388592 -s 2 -d 3 -p tcp -e 1000 -c 1 -i 25 -a 1 -x {0.0 4.0 6 ------- null}
- -t 0.6934928 -s 2 -d 3 -p tcp -e 1000 -c 1 -i 13 -a 1 -x {0.0 4.0 6 ------- null}
h -t 0.6934928 -s 2 -d 3 -p tcp -e 1000 -c 1 -i 13 -a 1 -x {0.0 4.0 -1 ------- null}
r -t 0.6944928 -s 2 -d 3 -p tcp -e 1000 -c 1 -i 12 -a 1 -x {0.0 4.0 5 ------- null}
+ -t 0.6944928 -s 3 -d 4 -p tcp -e 1000 -c 1 -i 12 -a 1 -x {0.0 4.0 5 ------- null}
- -t 0.6944928 -s 3 -d 4 -p tcp -e 1000 -c 1 -i 12 -a 1 -x {0.0 4.0 5 ------- null}
h -t 0.6944928 -s 3 -d 4 -p tcp -e 1000 -c 1 -i 12 -a 1 -x {0.0 4.0 -1 ------- null}
r -t 0.6995728 -s 3 -d 4 -p tcp -e 1000 -c 1 -i 12 -a 1 -x {0.0 4.0 5 ------- null}
+ -t 0.6995728 -s 4 -d 3 -p ack -e 40 -c 1 -i 26 -a 1 -x {4.0 0.0 5 ------- null}
- -t 0.6995728 -s 4 -d 3 -p ack -e 40 -c 1 -i 26 -a 1 -x {4.0 0.0 5 ------- null}
h -t 0.6995728 -s 4 -d 3 -p ack -e 40 -c 1 -i 26 -a 1 -x {4.0 0.0 -1 ------- null}
r -t 0.704576 -s 4 -d 3 -p ack -e 40 -c 1 -i 26 -a 1 -x {4.0 0.0 5 ------- null}
+ -t 0.704576 -s 3 -d 2 -p ack -e 40 -c 1 -i 26 -a 1 -x {4.0 0.0 5 ------- null}
- -t 0.704576 -s 3 -d 2 -p ack -e 40 -c 1 -i 26 -a 1 -x {4.0 0.0 5 ------- null}
h -t 0.704576 -s 3 -d 2 -p ack -e 40 -c 1 -i 26 -a 1 -x {4.0 0.0 -1 ------- null}
r -t 0.708776 -s 3 -d 2 -p ack -e 40 -c 1 -i 26 -a 1 -x {4.0 0.0 5 ------- null}
+ -t 0.708776 -s 2 -d 0 -p ack -e 40 -c 1 -i 26 -a 1 -x {4.0 0.0 5 ------- null}
- -t 0.708776 -s 2 -d 0 -p ack -e 40 -c 1 -i 26 -a 1 -x {4.0 0.0 5 ------- null}
h -t 0.708776 -s 2 -d 0 -p ack -e 40 -c 1 -i 26 -a 1 -x {4.0 0.0 -1 ------- null}
r -t 0.7137792 -s 2 -d 0 -p ack -e 40 -c 1 -i 26 -a 1 -x {4.0 0.0 5 ------- null}
+ -t 0.7137792 -s 0 -d 2 -p tcp -e 1000 -c 1 -i 27 -a 1 -x {0.0 4.0 7 ------- null}
- -t 0.7137792 -s 0 -d 2 -p tcp -e 1000 -c 1 -i 27 -a 1 -x {0.0 4.0 7 ------- null}
h -t 0.7137792 -s 0 -d 2 -p tcp -e 1000 -c 1 -i 27 -a 1 -x {0.0 4.0 -1 ------- null}
r -t 0.7188592 -s 0 -d 2 -p tcp -e 1000 -c 1 -i 27 -a 1 -x {0.0 4.0 7 ------- null}
+ -t 0.7188592 -s 2 -d 3 -p tcp -e 1000 -c 1 -i 27 -a 1 -x {0.0 4.0 7 ------- null}
- -t 0.7734928 -s 2 -d 3 -p tcp -e 1000 -c 2 -i 15 -a 2 -x {1.0 5.0 1 ---A--- null}
h -t 0.7734928 -s 2 -d 3 -p tcp -e 1000 -c 2 -i 15 -a 2 -x {1.0 5.0 -1 ---A--- null}
r -t 0.7744928 -s 2 -d 3 -p tcp -e 1000 -c 1 -i 13 -a 1 -x {0.0 4.0 6 ------- null}
+ -t 0.7744928 -s 3 -d 4 -p tcp -e 1000 -c 1 -i 13 -a 1 -x {0.0 4.0 6 ------- null}
- -t 0.7744928 -s 3 -d 4 -p tcp -e 1000 -c 1 -i 13 -a 1 -x {0.0 4.0 6 ------- null}
h -t 0.7744928 -s 3 -d 4 -p tcp -e 1000 -c 1 -i 13 -a 1 -x {0.0 4.0 -1 ------- null}
r -t 0.7795728 -s 3 -d 4 -p tcp -e 1000 -c 1 -i 13 -a 1 -x {0.0 4.0 6 ------- null}
+ -t 0.7795728 -s 4 -d 3 -p ack -e 40 -c 1 -i 28 -a 1 -x {4.0 0.0 6 ------- null}
- -t 0.7795728 -s 4 -d 3 -p ack -e 40 -c 1 -i 28 -a 1 -x {4.0 0.0 6 ------- null}
h -t 0.7795728 -s 4 -d 3 -p ack -e 40 -c 1 -i 28 -a 1 -x {4.0 0.0 -1 ------- null}
r -t 0.784576 -s 4 -d 3 -p ack -e 40 -c 1 -i 28 -a 1 -x {4.0 0.0 6 ------- null}
+ -t 0.784576 -s 3 -d 2 -p ack -e 40 -c 1 -i 28 -a 1 -x {4.0 0.0 6 ------- null}
- -t 0.784576 -s 3 -d 2 -p ack -e 40 -c 1 -i 28 -a 1 -x {4.0 0.0 6 ------- null}
h -t 0.784576 -s 3 -d 2 -p ack -e 40 -c 1 -i 28 -a 1 -x {4.0 0.0 -1 ------- null}
r -t 0.788776 -s 3 -d 2 -p ack -e 40 -c 1 -i 28 -a 1 -x {4.0 0.0 6 ------- null}
+ -t 0.788776 -s 2 -d 0 -p ack -e 40 -c 1 -i 28 -a 1 -x {4.0 0.0 6 ------- null}
- -t 0.788776 -s 2 -d 0 -p ack -e 40 -c 1 -i 28 -a 1 -x {4.0 0.0 6 ------- null}
h -t 0.788776 -s 2 -d 0 -p ack -e 40 -c 1 -i 28 -a 1 -x {4.0 0.0 -1 ------- null}
r -t 0.7937792 -s 2 -d 0 -p ack -e 40 -c 1 -i 28 -a 1 -x {4.0 0.0 6 ------- null}
+ -t 0.7937792 -s 0 -d 2 -p tcp -e 1000 -c 1 -i 29 -a 1 -x {0.0 4.0 8 ------- null}
- -t 0.7937792 -s 0 -d 2 -p tcp -e 1000 -c 1 -i 29 -a 1 -x {0.0 4.0 8 ------- null}
h -t 0.7937792 -s 0 -d 2 -p tcp -e 1000 -c 1 -i 29 -a 1 -x {0.0 4.0 -1 ------- null}
+ -t 0.7937792 -s 0 -d 2 -p tcp -e 1000 -c 1 -i 30 -a 1 -x {0.0 4.0 9 ------- null}
- -t 0.7938592 -s 0 -d 2 -p tcp -e 1000 -c 1 -i 30 -a 1 -x {0.0 4.0 9 ------- null}
h -t 0.7938592 -s 0 -d 2 -p tcp -e 1000 -c 1 -i 30 -a 1 -x {0.0 4.0 -1 ------- null}
r -t 0.7988592 -s 0 -d 2 -p tcp -e 1000 -c 1 -i 29 -a 1 -x {0.0 4.0 8 ------- null}
+ -t 0.7988592 -s 2 -d 3 -p tcp -e 1000 -c 1 -i 29 -a 1 -x {0.0 4.0 8 ------- null}
r -t 0.7989392 -s 0 -d 2 -p tcp -e 1000 -c 1 -i 30 -a 1 -x {0.0 4.0 9 ------- null}
+ -t 0.7989392 -s 2 -d 3 -p tcp -e 1000 -c 1 -i 30 -a 1 -x {0.0 4.0 9 ------- null}
d -t 0.7989392 -s 2 -d 3 -p tcp -e 1000 -c 1 -i 30 -a 1 -x {0.0 4.0 9 ------- null}
- -t 0.8534928 -s 2 -d 3 -p tcp -e 1000 -c 2 -i 16 -a 2 -x {1.0 5.0 2 ------- null}
h -t 0.8534928 -s 2 -d 3 -p tcp -e 1000 -c 2 -i 16 -a 2 -x {1.0 5.0 -1 ------- null}
r -t 0.8544928 -s 2 -d 3 -p tcp -e 1000 -c 2 -i 15 -a 2 -x {1.0 5.0 1 ---A--- null}
+ -t 0.8544928 -s 3 -d 5 -p tcp -e 1000 -c 2 -i 15 -a 2 -x {1.0 5.0 1 ---A--- null}
- -t 0.8544928 -s 3 -d 5 -p tcp -e 1000 -c 2 -i 15 -a 2 -x {1.0 5.0 1 ---A--- null}
h -t 0.8544928 -s 3 -d 5 -p tcp -e 1000 -c 2 -i 15 -a 2 -x {1.0 5.0 -1 ---A--- null}
r -t 0.8705728 -s 3 -d 5 -p tcp -e 1000 -c 2 -i 15 -a 2 -x {1.0 5.0 1 ---A--- null}
+ -t 0.8705728 -s 5 -d 3 -p ack -e 40 -c 2 -i 31 -a 2 -x {5.0 1.0 2 ------- null}
- -t 0.8705728 -s 5 -d 3 -p ack -e 40 -c 2 -i 31 -a 2 -x {5.0 1.0 2 ------- null}
h -t 0.8705728 -s 5 -d 3 -p ack -e 40 -c 2 -i 31 -a 2 -x {5.0 1.0 -1 ------- null}
r -t 0.886576 -s 5 -d 3 -p ack -e 40 -c 2 -i 31 -a 2 -x {5.0 1.0 2 ------- null}
+ -t 0.886576 -s 3 -d 2 -p ack -e 40 -c 2 -i 31 -a 2 -x {5.0 1.0 2 ------- null}
- -t 0.886576 -s 3 -d 2 -p ack -e 40 -c 2 -i 31 -a 2 -x {5.0 1.0 2 ------- null}
h -t 0.886576 -s 3 -d 2 -p ack -e 40 -c 2 -i 31 -a 2 -x {5.0 1.0 -1 ------- null}
r -t 0.890776 -s 3 -d 2 -p ack -e 40 -c 2 -i 31 -a 2 -x {5.0 1.0 2 ------- null}
+ -t 0.890776 -s 2 -d 1 -p ack -e 40 -c 2 -i 31 -a 2 -x {5.0 1.0 2 ------- null}
- -t 0.890776 -s 2 -d 1 -p ack -e 40 -c 2 -i 31 -a 2 -x {5.0 1.0 2 ------- null}
h -t 0.890776 -s 2 -d 1 -p ack -e 40 -c 2 -i 31 -a 2 -x {5.0 1.0 -1 ------- null}
r -t 0.9117792 -s 2 -d 1 -p ack -e 40 -c 2 -i 31 -a 2 -x {5.0 1.0 2 ------- null}
+ -t 0.9117792 -s 1 -d 2 -p tcp -e 1000 -c 2 -i 32 -a 2 -x {1.0 5.0 5 ------- null}
- -t 0.9117792 -s 1 -d 2 -p tcp -e 1000 -c 2 -i 32 -a 2 -x {1.0 5.0 5 ------- null}
h -t 0.9117792 -s 1 -d 2 -p tcp -e 1000 -c 2 -i 32 -a 2 -x {1.0 5.0 -1 ------- null}
r -t 0.9328592 -s 1 -d 2 -p tcp -e 1000 -c 2 -i 32 -a 2 -x {1.0 5.0 5 ------- null}
+ -t 0.9328592 -s 2 -d 3 -p tcp -e 1000 -c 2 -i 32 -a 2 -x {1.0 5.0 5 ------- null}
- -t 0.9334928 -s 2 -d 3 -p tcp -e 1000 -c 2 -i 17 -a 2 -x {1.0 5.0 3 ------- null}
h -t 0.9334928 -s 2 -d 3 -p tcp -e 1000 -c 2 -i 17 -a 2 -x {1.0 5.0 -1 ------- null}
r -t 0.9344928 -s 2 -d 3 -p tcp -e 1000 -c 2 -i 16 -a 2 -x {1.0 5.0 2 ------- null}
+ -t 0.9344928 -s 3 -d 5 -p tcp -e 1000 -c 2 -i 16 -a 2 -x {1.0 5.0 2 ------- null}
- -t 0.9344928 -s 3 -d 5 -p tcp -e 1000 -c 2 -i 16 -a 2 -x {1.0 5.0 2 ------- null}
h -t 0.9344928 -s 3 -d 5 -p tcp -e 1000 -c 2 -i 16 -a 2 -x {1.0 5.0 -1 ------- null}
r -t 0.9505728 -s 3 -d 5 -p tcp -e 1000 -c 2 -i 16 -a 2 -x {1.0 5.0 2 ------- null}
+ -t 0.9505728 -s 5 -d 3 -p ack -e 40 -c 2 -i 33 -a 2 -x {5.0 1.0 2 ------- null}
- -t 0.9505728 -s 5 -d 3 -p ack -e 40 -c 2 -i 33 -a 2 -x {5.0 1.0 2 ------- null}
h -t 0.9505728 -s 5 -d 3 -p ack -e 40 -c 2 -i 33 -a 2 -x {5.0 1.0 -1 ------- null}
r -t 0.966576 -s 5 -d 3 -p ack -e 40 -c 2 -i 33 -a 2 -x {5.0 1.0 2 ------- null}
+ -t 0.966576 -s 3 -d 2 -p ack -e 40 -c 2 -i 33 -a 2 -x {5.0 1.0 2 ------- null}
- -t 0.966576 -s 3 -d 2 -p ack -e 40 -c 2 -i 33 -a 2 -x {5.0 1.0 2 ------- null}
h -t 0.966576 -s 3 -d 2 -p ack -e 40 -c 2 -i 33 -a 2 -x {5.0 1.0 -1 ------- null}
r -t 0.970776 -s 3 -d 2 -p ack -e 40 -c 2 -i 33 -a 2 -x {5.0 1.0 2 ------- null}
+ -t 0.970776 -s 2 -d 1 -p ack -e 40 -c 2 -i 33 -a 2 -x {5.0 1.0 2 ------- null}
- -t 0.970776 -s 2 -d 1 -p ack -e 40 -c 2 -i 33 -a 2 -x {5.0 1.0 2 ------- null}
h -t 0.970776 -s 2 -d 1 -p ack -e 40 -c 2 -i 33 -a 2 -x {5.0 1.0 -1 ------- null}
r -t 0.9917792 -s 2 -d 1 -p ack -e 40 -c 2 -i 33 -a 2 -x {5.0 1.0 2 ------- null}
+ -t 0.9917792 -s 1 -d 2 -p tcp -e 1000 -c 2 -i 34 -a 2 -x {1.0 5.0 6 ------- null}
- -t 0.9917792 -s 1 -d 2 -p tcp -e 1000 -c 2 -i 34 -a 2 -x {1.0 5.0 6 ------- null}
h -t 0.9917792 -s 1 -d 2 -p tcp -e 1000 -c 2 -i 34 -a 2 -x {1.0 5.0 -1 ------- null}
+ -t 0.9917792 -s 1 -d 2 -p tcp -e 1000 -c 2 -i 35 -a 2 -x {1.0 5.0 3 ---A--- null}
- -t 0.9918592 -s 1 -d 2 -p tcp -e 1000 -c 2 -i 35 -a 2 -x {1.0 5.0 3 ---A--- null}
h -t 0.9918592 -s 1 -d 2 -p tcp -e 1000 -c 2 -i 35 -a 2 -x {1.0 5.0 -1 ---A--- null}
r -t 1.0128592 -s 1 -d 2 -p tcp -e 1000 -c 2 -i 34 -a 2 -x {1.0 5.0 6 ------- null}
+ -t 1.0128592 -s 2 -d 3 -p tcp -e 1000 -c 2 -i 34 -a 2 -x {1.0 5.0 6 ------- null}
r -t 1.0129392 -s 1 -d 2 -p tcp -e 1000 -c 2 -i 35 -a 2 -x {1.0 5.0 3 ---A--- null}
+ -t 1.0129392 -s 2 -d 3 -p tcp -e 1000 -c 2 -i 35 -a 2 -x {1.0 5.0 3 ---A--- null}
d -t 1.0129392 -s 2 -d 3 -p tcp -e 1000 -c 2 -i 35 -a 2 -x {1.0 5.0 3 ---A--- null}